                         Program Version 5.0.4 -  RELEASE  -
|  1> ! cam-B3LYP D3 def2-TZVP(-f) def2/J RIJCOSX
|  2> %maxcore  1000
|  3> %pal nprocs   8 end
|  4>  %TDDFT NROOTS 150
|  5> end
|  6> ! CPCM(DMF)
|  7> * xyz   0   1
|  8> S      4.66848600    9.29091900    8.39496900
|  9> F      1.41094400    6.31119300    6.87491600
| 10> O      2.65407200    8.24011000    3.43250600
| 11> O     -2.77044700    5.39748500    4.83533100
| 12> C      0.56631800    6.50071300    5.82950700
| 13> C     -0.65053100    5.84982300    5.91598000
| 14> H     -0.85929000    5.25437100    6.79137100
| 15> C     -1.55388300    5.97874300    4.86171800
| 16> C     -1.20588300    6.74824700    3.74158500
| 17> H     -1.91417800    6.84465500    2.92976700
| 18> C      0.02299800    7.36313300    3.69044600
| 19> H      0.29751100    7.94896200    2.82430400
| 20> C      0.95779600    7.27386900    4.73869400
| 21> C      2.26152300    7.97530900    4.57212300
| 22> C      3.01785000    8.38106800    5.76054500
| 23> H      2.58874500    8.19158500    6.73306800
| 24> C      4.20991900    8.99924600    5.64041400
| 25> H      4.59626600    9.16797000    4.63995800
| 26> C      5.04818900    9.47203400    6.69941300
| 27> C      6.25224700   10.12533000    6.54875000
| 28> H      6.67148800   10.33803000    5.57383200
| 29> C      6.87618500   10.48677900    7.77212300
| 30> C      6.12462700   10.09274800    8.84842500
| 31> H      6.35392900   10.23262600    9.89361000
| 32> C     -3.16085600    4.58446100    5.95055000
| 33> H     -4.15633200    4.22022200    5.71336400
| 34> H     -3.19032200    5.17534200    6.86783800
| 35> H     -2.47672600    3.74261100    6.07153900
| 36> C      8.18720000   11.20813000    7.86815500
| 37> H      8.97959800   10.64407400    7.37080100
| 38> H      8.47542600   11.35908700    8.90809800
| 39> H      8.13013100   12.18562500    7.38339900
| 40>  *
| 41>
| 42>                          ****END OF INPUT****

CARTESIAN COORDINATES (ANGSTROEM)
---------------------------------
  S      4.668486    9.290919    8.394969
  F      1.410944    6.311193    6.874916
  O      2.654072    8.240110    3.432506
  O     -2.770447    5.397485    4.835331
  C      0.566318    6.500713    5.829507
  C     -0.650531    5.849823    5.915980
  H     -0.859290    5.254371    6.791371
  C     -1.553883    5.978743    4.861718
  C     -1.205883    6.748247    3.741585
  H     -1.914178    6.844655    2.929767
  C      0.022998    7.363133    3.690446
  H      0.297511    7.948962    2.824304
  C      0.957796    7.273869    4.738694
  C      2.261523    7.975309    4.572123
  C      3.017850    8.381068    5.760545
  H      2.588745    8.191585    6.733068
  C      4.209919    8.999246    5.640414
  H      4.596266    9.167970    4.639958
  C      5.048189    9.472034    6.699413
  C      6.252247   10.125330    6.548750
  H      6.671488   10.338030    5.573832
  C      6.876185   10.486779    7.772123
  C      6.124627   10.092748    8.848425
  H      6.353929   10.232626    9.893610
  C     -3.160856    4.584461    5.950550
  H     -4.156332    4.220222    5.713364
  H     -3.190322    5.175342    6.867838
  H     -2.476726    3.742611    6.071539
  C      8.187200   11.208130    7.868155
  H      8.979598   10.644074    7.370801
  H      8.475426   11.359087    8.908098
  H      8.130131   12.185625    7.383399

 Total Charge           Charge          ....    0
 Multiplicity           Mult            ....    1
 Number of Electrons    NEL             ....  144
 Basis Dimension        Dim             ....  540

ORBITAL ENERGIES
----------------

  NO   OCC          E(Eh)            E(eV)
   0   2.0000     -88.960715     -2420.7441
   1   2.0000     -24.781051      -674.3267
   2   2.0000     -19.246364      -523.7202
   3   2.0000     -19.186514      -522.0916
   4   2.0000     -10.354775      -281.7677
   5   2.0000     -10.346609      -281.5455
   6   2.0000     -10.332672      -281.1663
   7   2.0000     -10.295876      -280.1650
   8   2.0000     -10.287709      -279.9428
   9   2.0000     -10.279291      -279.7137
  10   2.0000     -10.277079      -279.6535
  11   2.0000     -10.267013      -279.3796
  12   2.0000     -10.266510      -279.3659
  13   2.0000     -10.262840      -279.2661
  14   2.0000     -10.260264      -279.1960
  15   2.0000     -10.258528      -279.1487
  16   2.0000     -10.253524      -279.0126
  17   2.0000     -10.251705      -278.9631
  18   2.0000     -10.239900      -278.6418
  19   2.0000      -8.038085      -218.7274
  20   2.0000      -6.001767      -163.3164
  21   2.0000      -5.997601      -163.2030
  22   2.0000      -5.995146      -163.1362
  23   2.0000      -1.321830       -35.9688
  24   2.0000      -1.165226       -31.7074
  25   2.0000      -1.122843       -30.5541
  26   2.0000      -0.979294       -26.6479
  27   2.0000      -0.961853       -26.1734
  28   2.0000      -0.898104       -24.4387
  29   2.0000      -0.865373       -23.5480
  30   2.0000      -0.850994       -23.1567
  31   2.0000      -0.847233       -23.0544
  32   2.0000      -0.821689       -22.3593
  33   2.0000      -0.795544       -21.6478
  34   2.0000      -0.761318       -20.7165
  35   2.0000      -0.731544       -19.9063
  36   2.0000      -0.712963       -19.4007
  37   2.0000      -0.691428       -18.8147
  38   2.0000      -0.656525       -17.8650
  39   2.0000      -0.632479       -17.2106
  40   2.0000      -0.625054       -17.0086
  41   2.0000      -0.609741       -16.5919
  42   2.0000      -0.594105       -16.1664
  43   2.0000      -0.586640       -15.9633
  44   2.0000      -0.575179       -15.6514
  45   2.0000      -0.562663       -15.3108
  46   2.0000      -0.547712       -14.9040
  47   2.0000      -0.546939       -14.8830
  48   2.0000      -0.529161       -14.3992
  49   2.0000      -0.519370       -14.1328
  50   2.0000      -0.512469       -13.9450
  51   2.0000      -0.500240       -13.6122
  52   2.0000      -0.497154       -13.5282
  53   2.0000      -0.492247       -13.3947
  54   2.0000      -0.488384       -13.2896
  55   2.0000      -0.478036       -13.0080
  56   2.0000      -0.462912       -12.5965
  57   2.0000      -0.459400       -12.5009
  58   2.0000      -0.455888       -12.4053
  59   2.0000      -0.448799       -12.2124
  60   2.0000      -0.438721       -11.9382
  61   2.0000      -0.435252       -11.8438
  62   2.0000      -0.431944       -11.7538
  63   2.0000      -0.415208       -11.2984
  64   2.0000      -0.404329       -11.0024
  65   2.0000      -0.396871       -10.7994
  66   2.0000      -0.369308       -10.0494
  67   2.0000      -0.336554        -9.1581
  68   2.0000      -0.323806        -8.8112
  69   2.0000      -0.310979        -8.4622
  70   2.0000      -0.296288        -8.0624
  71   2.0000      -0.276069        -7.5122
  72   0.0000      -0.052951        -1.4409
  73   0.0000       0.012151         0.3306
  74   0.0000       0.024606         0.6696
  75   0.0000       0.063816         1.7365
  76   0.0000       0.065743         1.7890

MULLIKEN ATOMIC CHARGES
-----------------------
   0 S :    0.274812
   1 F :   -0.278459
   2 O :   -0.571452
   3 O :   -0.410123
   4 C :    0.255463
   5 C :   -0.282798
   6 H :    0.145668
   7 C :    0.455121
   8 C :   -0.211309
   9 H :    0.124272
  10 C :   -0.225596
  11 H :    0.134784
  12 C :    0.106905
  13 C :    0.380668
  14 C :   -0.148155
  15 H :    0.144270
  16 C :   -0.196697
  17 H :    0.136902
  18 C :    0.165492
  19 C :   -0.355307
  20 H :    0.147660
  21 C :    0.129461
  22 C :   -0.313596
  23 H :    0.162322
  24 C :   -0.205362
  25 H :    0.164979
  26 H :    0.151121
  27 H :    0.151443
  28 C :   -0.469363
  29 H :    0.145842
  30 H :    0.145033
  31 H :    0.145998
Sum of atomic charges:    0.0000000

LOEWDIN ATOMIC CHARGES
----------------------
   0 S :    0.744224
   1 F :    0.083537
   2 O :   -0.063736
   3 O :    0.110809
   4 C :   -0.123844
   5 C :   -0.101459
   6 H :    0.157683
   7 C :   -0.166850
   8 C :   -0.113193
   9 H :    0.148696
  10 C :   -0.069576
  11 H :    0.151783
  12 C :   -0.107121
  13 C :   -0.181034
  14 C :   -0.139581
  15 H :    0.139810
  16 C :   -0.093744
  17 H :    0.158385
  18 C :   -0.366400
  19 C :   -0.111136
  20 H :    0.149366
  21 C :   -0.220465
  22 C :   -0.363855
  23 H :    0.131331
  24 C :   -0.230416
  25 H :    0.114998
  26 H :    0.111476
  27 H :    0.111635
  28 C :   -0.237707
  29 H :    0.125676
  30 H :    0.124912
  31 H :    0.125793

  Mayer bond orders larger than 0.100000
B(  0-S , 18-C ) :   1.2654 B(  0-S , 22-C ) :   1.2941 B(  1-F ,  4-C ) :   0.9403
B(  2-O , 12-C ) :  -0.1068 B(  2-O , 13-C ) :   1.8935 B(  2-O , 14-C ) :  -0.1405
B(  2-O , 16-C ) :   0.1067 B(  3-O ,  7-C ) :   1.1176 B(  3-O , 24-C ) :   0.8755
B(  4-C ,  5-C ) :   1.4271 B(  4-C , 12-C ) :   1.4171 B(  5-C ,  6-H ) :   0.9665
B(  5-C ,  7-C ) :   1.2765 B(  7-C ,  8-C ) :   1.3152 B(  8-C ,  9-H ) :   0.9996
B(  8-C , 10-C ) :   1.4759 B( 10-C , 11-H ) :   0.9723 B( 10-C , 12-C ) :   1.2471
B( 12-C , 13-C ) :   1.0109 B( 13-C , 14-C ) :   1.0668 B( 14-C , 15-H ) :   0.9274
B( 14-C , 16-C ) :   1.7048 B( 16-C , 17-H ) :   0.9665 B( 16-C , 18-C ) :   0.9906
B( 18-C , 19-C ) :   1.5647 B( 19-C , 20-H ) :   0.9666 B( 19-C , 21-C ) :   1.2595
B( 21-C , 22-C ) :   1.7230 B( 21-C , 28-C ) :   0.9224 B( 22-C , 23-H ) :   0.9330
B( 24-C , 25-H ) :   0.9665 B( 24-C , 26-H ) :   0.9653 B( 24-C , 27-H ) :   0.9652
B( 28-C , 29-H ) :   0.9681 B( 28-C , 30-H ) :   0.9898 B( 28-C , 31-H ) :   0.9665

-----------------------------------------------------------------------------
         ABSORPTION SPECTRUM VIA TRANSITION ELECTRIC DIPOLE MOMENTS
-----------------------------------------------------------------------------
State   Energy    Wavelength  fosc         T2        TX        TY        TZ
        (cm-1)      (nm)                 (au**2)    (au)      (au)      (au)
-----------------------------------------------------------------------------
   1   29996.8    333.4   1.089759951  11.95999  -2.66811  -1.46773  -1.63919
   2   30896.5    323.7   0.031801802   0.33886  -0.36255  -0.20245  -0.40796
   3   36559.0    273.5   0.328603135   2.95905   1.33174   0.77137  -0.76846
   4   38094.6    262.5   0.100415024   0.86778   0.79462   0.39786   0.27941
   5   39793.7    251.3   0.013669654   0.11309  -0.31701  -0.10946   0.02473
   6   45578.3    219.4   0.027622239   0.19952   0.23714   0.16672  -0.33983
   7   46458.0    215.2   0.103062940   0.73033  -0.37868   0.22344  -0.73281
   8   47799.7    209.2   0.000320830   0.00221   0.04473  -0.00982   0.01060
   9   49707.6    201.2   0.070843151   0.46919  -0.47673  -0.37315   0.32044
  10   50246.7    199.0   0.045652228   0.29911   0.42966   0.15214   0.30225
  11   51240.8    195.2   0.000145028   0.00093  -0.02753  -0.01113   0.00708
  12   51801.2    193.0   0.002265055   0.01440   0.02328  -0.11768   0.00187
  13   52317.0    191.1   0.025552163   0.16079   0.34792   0.19141  -0.05572
  14   52824.3    189.3   0.005651401   0.03522  -0.16385  -0.09014   0.01576
  15   53188.5    188.0   0.012079605   0.07477   0.14847  -0.07270   0.21781
  16   55942.0    178.8   0.802277023   4.72130  -1.81019  -1.11984   0.43641
  17   56342.8    177.5   0.243008942   1.41991  -1.04934  -0.23758  -0.51219
  18   57001.4    175.4   0.066806644   0.38584   0.17027  -0.18390   0.56836
  19   57153.4    175.0   0.218715462   1.25983   0.00584   0.52049  -0.99443
  20   57604.2    173.6   0.070184941   0.40111  -0.58170  -0.05346  -0.24470
  21   58605.9    170.6   0.199346630   1.11981  -0.95657  -0.45051  -0.04261
  22   59169.2    169.0   0.009909195   0.05513   0.19520   0.11412  -0.06330
  23   60034.1    166.6   0.299897238   1.64456   1.03204   0.58790  -0.48356
  24   60114.0    166.4   0.000788169   0.00432  -0.04670  -0.03974  -0.02357
  25   60528.9    165.2   0.001636659   0.00890   0.02479  -0.03274  -0.08494
  26   61143.3    163.6   0.008327201   0.04484  -0.16374  -0.01349   0.13357
  27   61287.3    163.2   0.004110304   0.02208   0.10649  -0.07584  -0.07063
  28   62070.3    161.1   0.168235089   0.89229  -0.73648  -0.49013  -0.33116
  29   62173.2    160.8   0.002599716   0.01377  -0.06872  -0.09196  -0.02423
  30   62676.7    159.5   0.111125557   0.58369   0.51038   0.42905  -0.37300
  31   62979.2    158.8   0.032051688   0.16754  -0.21742   0.29357   0.18464
  32   63226.4    158.2   0.000511891   0.00267  -0.02761  -0.01631   0.04046
  33   63879.8    156.5   0.005010282   0.02582  -0.10404  -0.08899   0.08413
  34   63949.1    156.4   0.002622193   0.01350  -0.05425   0.07921   0.06543
  35   64324.6    155.5   0.007061425   0.03614  -0.14949  -0.10421   0.05415
  36   65391.6    152.9   0.001430846   0.00720   0.00977  -0.08374   0.00979
  37   65666.5    152.3   0.006609154   0.03313  -0.04494   0.11115  -0.13696
  38   65892.0    151.8   0.008405727   0.04200   0.16560  -0.02324  -0.11846
  39   66096.5    151.3   0.021340510   0.10629   0.13431   0.19236  -0.22638
  40   66142.1    151.2   0.049309054   0.24543  -0.35038  -0.12447   0.32737
  41   66610.9    150.1   0.004791074   0.02368   0.03232   0.12853  -0.07820
  42   66740.3    149.8   0.003192717   0.01575   0.11342  -0.01114  -0.05255
  43   67314.3    148.6   0.003577019   0.01749   0.11700   0.00083  -0.06169
  44   67428.0    148.3   0.013704079   0.06691  -0.18269   0.18303  -0.00558
  45   67513.1    148.1   0.045230085   0.22055  -0.34460  -0.11664   0.29699
  46   67952.5    147.2   0.002790062   0.01352  -0.06901  -0.09267   0.01292
  47   68150.9    146.7   0.006913397   0.03340  -0.16529   0.06822   0.03771
  48   68311.9    146.4   0.018317003   0.08827  -0.15226  -0.24071  -0.08455
  49   68446.9    146.1   0.005146559   0.02475  -0.13689   0.06600  -0.04072
  50   68716.9    145.5   0.054230920   0.25981   0.43566   0.19455  -0.17933
  51   69106.6    144.7   0.182866655   0.87115  -0.03947   0.41913  -0.83302
  52   69517.7    143.8   0.015506473   0.07343   0.07332  -0.06789   0.25189
  53   69778.4    143.3   0.025570844   0.12064  -0.32554  -0.01711  -0.11989
  54   69980.2    142.9   0.004462813   0.02099   0.02076   0.09832   0.10439
  55   70672.0    141.5   0.002211796   0.01030   0.08975  -0.03632   0.03049
  56   70834.9    141.2   0.047646491   0.22144   0.29316   0.12636   0.34573
  57   70914.5    141.0   0.047125774   0.21878   0.40275   0.11893   0.20598
  58   70967.0    140.9   0.005348343   0.02481   0.11096  -0.00847  -0.11147
  59   71474.4    139.9   0.008069103   0.03717   0.05453   0.17380   0.06314
  60   71583.1    139.7   0.001640946   0.00755  -0.06311  -0.05948   0.00513
  61   71653.0    139.6   0.008647538   0.03973  -0.03111  -0.08382   0.17815
  62   71915.1    139.1   0.010684289   0.04891  -0.21298   0.05853  -0.01121
  63   72247.3    138.4   0.020825902   0.09490   0.01249   0.21465  -0.22060
  64   72466.7    138.0   0.009024437   0.04100   0.09686   0.02247   0.17638
  65   72685.0    137.6   0.069435704   0.31449  -0.24236  -0.11917  -0.49148
  66   73010.1    137.0   0.005039447   0.02272  -0.00309   0.06756  -0.13472
  67   73107.1    136.8   0.016784006   0.07558   0.07735  -0.08619   0.24934
  68   73378.4    136.3   0.001519362   0.00682  -0.07746  -0.01539   0.02409
  69   73507.9    136.0   0.014928418   0.06686   0.12710  -0.22309   0.03059
  70   73608.5    135.9   0.004341668   0.01942   0.01747  -0.01414  -0.13752
  71   73823.4    135.5   0.001676777   0.00748  -0.01145  -0.03622   0.07768
  72   74127.7    134.9   0.013187078   0.05857  -0.00824   0.23730   0.04674
  73   74220.1    134.7   0.012028697   0.05335   0.14609   0.04482   0.17322
  74   74614.4    134.0   0.041034418   0.18105   0.35177   0.21668  -0.10178
  75   74879.7    133.5   0.014283660   0.06280   0.21871   0.12049   0.02113
  76   74945.0    133.4   0.007356831   0.03232  -0.16614  -0.06146   0.03060
  77   74960.3    133.4   0.008225111   0.03612   0.10461   0.03028   0.15577
  78   75262.4    132.9   0.026125501   0.11428   0.17478   0.21638   0.19211
  79   75537.9    132.4   0.172055021   0.74986   0.38045   0.17758   0.75735
  80   75706.9    132.1   0.021990440   0.09563  -0.15818  -0.16039  -0.21184
  81   75807.3    131.9   0.000197598   0.00086  -0.02306   0.00053  -0.01806
  82   75999.5    131.6   0.082876704   0.35900   0.02989   0.12968  -0.58420
  83   76248.5    131.2   0.008830570   0.03813  -0.06597  -0.08944   0.16055
  84   76524.2    130.7   0.015413357   0.06631   0.08206  -0.13023  -0.20644
  85   76862.2    130.1   0.004488639   0.01923   0.11954  -0.01348   0.06894
  86   76990.0    129.9   0.034300075   0.14667  -0.23418  -0.12470  -0.27619
  87   77139.3    129.6   0.002124111   0.00907   0.04135  -0.03726   0.07725
  88   77350.7    129.3   0.010274082   0.04373   0.03569  -0.08652  -0.18700
  89   77435.0    129.1   0.006289126   0.02674   0.15128   0.03150   0.05348
  90   77646.0    128.8   0.004821143   0.02044   0.03180   0.10598  -0.09054
  91   78018.3    128.2   0.001047972   0.00442  -0.00757   0.03453   0.05632
  92   78433.7    127.5   0.009315165   0.03910   0.04374  -0.18894  -0.03858
  93   78736.7    127.0   0.079546304   0.33260  -0.26470  -0.09873   0.50277
  94   78786.9    126.9   0.005763572   0.02408   0.03002   0.15222  -0.00312
  95   78965.7    126.6   0.054676506   0.22795  -0.10907   0.01607   0.46454
  96   79116.4    126.4   0.035836097   0.14912   0.12884   0.08322  -0.35439
  97   79400.1    125.9   0.012191096   0.05055  -0.04453   0.17167  -0.13819
  98   79533.2    125.7   0.001969108   0.00815  -0.08219  -0.03438  -0.01459
  99   79625.9    125.6   0.001887961   0.00781   0.06142  -0.06061  -0.01896
 100   79730.3    125.4   0.089296661   0.36871   0.28421   0.08857  -0.52924
 101   79769.3    125.4   0.068533722   0.28284  -0.00248  -0.11488   0.51927
 102   79904.8    125.1   0.031598435   0.13019   0.06279  -0.17304  -0.31033
 103   79948.2    125.1   0.052782190   0.21735   0.08519   0.11617  -0.44339
 104   80120.0    124.8   0.004133027   0.01698   0.00906   0.12132   0.04671
 105   80205.8    124.7   0.002521443   0.01035   0.05666  -0.07571   0.03751
 106   80330.7    124.5   0.002228460   0.00913   0.04791  -0.04429  -0.06983
 107   80485.0    124.2   0.001214651   0.00497   0.00700   0.06065  -0.03523
 108   80601.5    124.1   0.002608945   0.01066   0.01284   0.04105  -0.09384
 109   80801.8    123.8   0.009935651   0.04048   0.02547   0.03443  -0.19659
 110   80899.4    123.6   0.006037043   0.02457  -0.01543   0.14993  -0.04301
 111   81039.5    123.4   0.009138724   0.03712   0.09870  -0.09481   0.13563
 112   81190.6    123.2   0.022425056   0.09093   0.05875  -0.11861   0.27094
 113   81637.2    122.5   0.000633753   0.00256   0.01487   0.01744   0.04506
 114   81871.0    122.1   0.017325894   0.06967   0.24593   0.01849  -0.09405
 115   82113.3    121.8   0.007570792   0.03035   0.17318   0.00579   0.01815
 116   82182.6    121.7   0.062060528   0.24861   0.48059   0.13211  -0.01373
 117   82329.8    121.5   0.004309328   0.01723  -0.10082  -0.03517   0.07636
 118   82499.1    121.2   0.029678769   0.11843   0.27076   0.19334  -0.08797
 119   82560.3    121.1   0.004127631   0.01646   0.10711   0.04731   0.05242
 120   82784.4    120.8   0.013904090   0.05529   0.10365   0.17590  -0.11666
 121   82982.6    120.5   0.017452843   0.06924   0.04223   0.25760   0.03311
 122   83040.3    120.4   0.009281596   0.03680   0.13653   0.11949  -0.06229
 123   83158.5    120.3   0.007668443   0.03036   0.05392  -0.12032   0.11390
 124   83221.7    120.2   0.002032095   0.00804   0.05823   0.05402   0.04158
 125   83351.2    120.0   0.008182222   0.03232   0.15809  -0.03133  -0.07964
 126   83473.5    119.8   0.021116725   0.08328   0.04757   0.22147   0.17880
 127   83643.7    119.6   0.003340661   0.01315  -0.05841  -0.06890  -0.07064
 128   83813.4    119.3   0.005112885   0.02008  -0.07206   0.07844  -0.09347
 129   83867.4    119.2   0.008076859   0.03170  -0.17598   0.02710  -0.00027
 130   84072.7    118.9   0.031883268   0.12485  -0.03179   0.22787  -0.26816
 131   84124.3    118.9   0.010513620   0.04114   0.17755   0.08390   0.05082
 132   84286.0    118.6   0.022752961   0.08887   0.02282  -0.10700  -0.27731
 133   84335.8    118.6   0.000952667   0.00372   0.00106   0.05352   0.02922
 134   84539.4    118.3   0.040771860   0.15877  -0.13708  -0.09216   0.36262
 135   84750.9    118.0   0.002957565   0.01149   0.08989  -0.05509  -0.01929
 136   84772.8    118.0   0.003720708   0.01445  -0.03411   0.11381  -0.01828
 137   84972.3    117.7   0.013606425   0.05272  -0.13264  -0.02975  -0.18504
 138   85033.5    117.6   0.001172187   0.00454   0.04021   0.04632   0.02785
 139   85091.6    117.5   0.003883769   0.01503   0.04326  -0.05960  -0.09799
 140   85214.5    117.4   0.008845833   0.03417  -0.07534   0.01121   0.16844
 141   85390.6    117.1   0.003804104   0.01467   0.09308   0.03750   0.06780
 142   85589.5    116.8   0.001600105   0.00615  -0.00869  -0.01471   0.07657
 143   85659.2    116.7   0.002169622   0.00834   0.06968  -0.05588  -0.01897
 144   85760.6    116.6   0.046245634   0.17752   0.15806   0.03346  -0.38913
 145   85850.3    116.5   0.134284617   0.51494  -0.51405  -0.45283   0.21363
 146   85979.8    116.3   0.008691484   0.03328  -0.15888  -0.06198  -0.06477
 147   86002.0    116.3   0.026067277   0.09978   0.02369   0.13959  -0.28238
 148   86119.2    116.1   0.042860419   0.16384  -0.39159  -0.05641  -0.08555
 149   86226.2    116.0   0.012782990   0.04881  -0.19072   0.04457  -0.10221
 150   86314.7    115.9   0.010316442   0.03935   0.02232   0.01603   0.19645

Dispersion correction           -0.031416104
FINAL SINGLE POINT ENERGY     -1227.704619445296

DIPOLE MOMENT
-------------
                                X             Y             Z
Electronic contribution:     -3.68226      -3.53196       0.05817
Nuclear contribution   :      3.37891       3.31608       1.77557
                        -----------------------------------------
Total Dipole Moment    :     -0.30335      -0.21588       1.83374
                        -----------------------------------------
Magnitude (a.u.)       :      1.87116
Magnitude (Debye)      :      4.75611

Rotational constants in cm-1:     0.035604     0.003976     0.003622
Rotational constants in MHz :  1067.393831   119.186486   108.598135

                             ****ORCA TERMINATED NORMALLY****
TOTAL RUN TIME: 0 days 0 hours 19 minutes 54 seconds 774 msec
