                         Program Version 5.0.4 -  RELEASE  -
|  1> ! B3LYP D3 def2-TZVP(-f) def2/J RIJCOSX opt freq tightSCF noautostart miniprint nopop
|  2> %maxcore  1500
|  3> %pal nprocs   8 end
|  4> ! CPCM(DMF)
|  5> * xyz   0   1
|  6> S      4.83650000    9.04700000    8.33740000
|  7> F      1.09040000    6.83480000    7.09430000
|  8> O      2.43790000    8.60150000    3.60820000
|  9> O     -2.61100000    5.24410000    4.73950000
| 10> C      0.43500000    6.73230000    5.92990000
| 11> C     -0.71950000    6.01410000    5.96920000
| 12> H     -1.05740000    5.55360000    6.89640000
| 13> C     -1.43900000    5.88590000    4.83080000
| 14> C     -0.98050000    6.45300000    3.67110000
| 15> H     -1.55060000    6.34880000    2.74910000
| 16> C      0.17520000    7.14090000    3.67440000
| 17> H      0.52430000    7.57460000    2.73850000
| 18> C      0.93990000    7.32110000    4.80970000
| 19> C      2.15200000    8.14450000    4.68600000
| 20> C      2.99780000    8.44190000    5.82670000
| 21> H      2.69340000    8.10870000    6.81770000
| 22> C      4.11670000    9.10210000    5.68830000
| 23> H      4.37170000    9.40730000    4.67450000
| 24> C      5.04190000    9.46850000    6.70490000
| 25> C      6.17800000   10.17580000    6.55100000
| 26> H      6.51640000   10.54490000    5.58390000
| 27> C      6.88430000   10.39460000    7.73100000
| 28> C      6.25950000    9.83240000    8.77220000
| 29> H      6.63300000    9.87900000    9.79400000
| 30> C     -3.14480000    4.63690000    5.89590000
| 31> H     -4.11320000    4.19760000    5.66090000
| 32> H     -3.26620000    5.38580000    6.67710000
| 33> H     -2.46800000    3.85730000    6.24240000
| 34> C      8.13880000   11.17090000    7.81510000
| 35> H      8.75310000   10.96380000    6.94000000
| 36> H      8.68180000   10.88680000    8.71520000
| 37> H      7.90560000   12.23400000    7.85180000
| 38>  *
| 39>
| 40>                          ****END OF INPUT****
Dispersion correction           -0.066944539
FINAL SINGLE POINT ENERGY     -1227.734960210868
Dispersion correction            ... done
Dispersion correction           -0.066399629
FINAL SINGLE POINT ENERGY     -1227.751288466799
Dispersion correction            ... done
Dispersion correction           -0.066341544
FINAL SINGLE POINT ENERGY     -1227.752992299304
Dispersion correction            ... done
FINAL SINGLE POINT ENERGY     -1227.753279011826
FINAL SINGLE POINT ENERGY     -1227.753417874851
FINAL SINGLE POINT ENERGY     -1227.753652941984
FINAL SINGLE POINT ENERGY     -1227.753908220132
FINAL SINGLE POINT ENERGY     -1227.754133677883
FINAL SINGLE POINT ENERGY     -1227.754228828450
FINAL SINGLE POINT ENERGY     -1227.754282083019
FINAL SINGLE POINT ENERGY     -1227.754307243842
FINAL SINGLE POINT ENERGY     -1227.754319167898
FINAL SINGLE POINT ENERGY     -1227.754332117586
FINAL SINGLE POINT ENERGY     -1227.754337704148
Dispersion correction           -0.066395136
FINAL SINGLE POINT ENERGY     -1227.754339640359
Dispersion correction            ... done
Dispersion correction           -0.066390071
FINAL SINGLE POINT ENERGY     -1227.754338636897
Dispersion correction            ... done
                    ***********************HURRAY********************

CARTESIAN COORDINATES (ANGSTROEM)
---------------------------------
  S      4.668485    9.290921    8.394969
  F      1.410943    6.311195    6.874916
  O      2.654071    8.240111    3.432507
  O     -2.770447    5.397483    4.835331
  C      0.566317    6.500714    5.829507
  C     -0.650531    5.849823    5.915980
  H     -0.859290    5.254371    6.791371
  C     -1.553883    5.978743    4.861717
  C     -1.205883    6.748246    3.741585
  H     -1.914178    6.844654    2.929767
  C      0.022998    7.363134    3.690446
  H      0.297510    7.948963    2.824305
  C      0.957796    7.273870    4.738695
  C      2.261522    7.975311    4.572124
  C      3.017849    8.381069    5.760545
  H      2.588743    8.191587    6.733069
  C      4.209919    8.999247    5.640414
  H      4.596266    9.167969    4.639958
  C      5.048188    9.472034    6.699414
  C      6.252248   10.125329    6.548750
  H      6.671488   10.338029    5.573832
  C      6.876186   10.486779    7.772123
  C      6.124627   10.092750    8.848425
  H      6.353929   10.232628    9.893610
  C     -3.160856    4.584460    5.950549
  H     -4.156331    4.220220    5.713364
  H     -3.190322    5.175341    6.867837
  H     -2.476725    3.742610    6.071539
  C      8.187201   11.208129    7.868155
  H      8.979599   10.644071    7.370802
  H      8.475426   11.359087    8.908097
  H      8.130134   12.185623    7.383397

ORBITAL ENERGIES
----------------

  NO   OCC          E(Eh)            E(eV)
   0   2.0000     -88.886661     -2418.7290
   1   2.0000     -24.703945      -672.2285
   2   2.0000     -19.172595      -521.7128
   3   2.0000     -19.107478      -519.9409
   4   2.0000     -10.274666      -279.5879
   5   2.0000     -10.263050      -279.2718
   6   2.0000     -10.253542      -279.0131
   7   2.0000     -10.220354      -278.1100
   8   2.0000     -10.211480      -277.8685
   9   2.0000     -10.201397      -277.5941
  10   2.0000     -10.199960      -277.5550
  11   2.0000     -10.189562      -277.2721
  12   2.0000     -10.188391      -277.2402
  13   2.0000     -10.187671      -277.2206
  14   2.0000     -10.183767      -277.1144
  15   2.0000     -10.182441      -277.0783
  16   2.0000     -10.177445      -276.9424
  17   2.0000     -10.174731      -276.8685
  18   2.0000     -10.165445      -276.6158
  19   2.0000      -7.962997      -216.6842
  20   2.0000      -5.925635      -161.2447
  21   2.0000      -5.921703      -161.1377
  22   2.0000      -5.919294      -161.0722
  23   2.0000      -1.237699       -33.6795
  24   2.0000      -1.081772       -29.4365
  25   2.0000      -1.035848       -28.1869
  26   2.0000      -0.892830       -24.2951
  27   2.0000      -0.874567       -23.7982
  28   2.0000      -0.812133       -22.0993
  29   2.0000      -0.781093       -21.2546
  30   2.0000      -0.767034       -20.8721
  31   2.0000      -0.763945       -20.7880
  32   2.0000      -0.739013       -20.1096
  33   2.0000      -0.714196       -19.4343
  34   2.0000      -0.680773       -18.5248
  35   2.0000      -0.652182       -17.7468
  36   2.0000      -0.633992       -17.2518
  37   2.0000      -0.613568       -16.6960
  38   2.0000      -0.579334       -15.7645
  39   2.0000      -0.557469       -15.1695
  40   2.0000      -0.550541       -14.9810
  41   2.0000      -0.534040       -14.5320
  42   2.0000      -0.519689       -14.1414
  43   2.0000      -0.513313       -13.9680
  44   2.0000      -0.502563       -13.6754
  45   2.0000      -0.485581       -13.2133
  46   2.0000      -0.475719       -12.9450
  47   2.0000      -0.472840       -12.8666
  48   2.0000      -0.456515       -12.4224
  49   2.0000      -0.446483       -12.1494
  50   2.0000      -0.441627       -12.0173
  51   2.0000      -0.431355       -11.7378
  52   2.0000      -0.425554       -11.5799
  53   2.0000      -0.423178       -11.5153
  54   2.0000      -0.415733       -11.3127
  55   2.0000      -0.407988       -11.1019
  56   2.0000      -0.394307       -10.7296
  57   2.0000      -0.392003       -10.6670
  58   2.0000      -0.385820       -10.4987
  59   2.0000      -0.379317       -10.3217
  60   2.0000      -0.373579       -10.1656
  61   2.0000      -0.369819       -10.0633
  62   2.0000      -0.366070        -9.9613
  63   2.0000      -0.348879        -9.4935
  64   2.0000      -0.341965        -9.3054
  65   2.0000      -0.329671        -8.9708
  66   2.0000      -0.305494        -8.3129
  67   2.0000      -0.269185        -7.3249
  68   2.0000      -0.262731        -7.1493
  69   2.0000      -0.255202        -6.9444
  70   2.0000      -0.241058        -6.5595
  71   2.0000      -0.224049        -6.0967
  72   0.0000      -0.090406        -2.4601
  73   0.0000      -0.030305        -0.8246
  74   0.0000      -0.018793        -0.5114
  75   0.0000       0.016290         0.4433
  76   0.0000       0.018160         0.4942

Total SCF time: 0 days 0 hours 1 min 18 sec

Dispersion correction           -0.066388534
FINAL SINGLE POINT ENERGY     -1227.754338448132

DIPOLE MOMENT
-------------
                                X             Y             Z
Electronic contribution:     -3.64827      -3.51713       0.15990
Nuclear contribution   :      3.37892       3.31606       1.77556
                        -----------------------------------------
Total Dipole Moment    :     -0.26935      -0.20107       1.93546
                        -----------------------------------------
Magnitude (a.u.)       :      1.96443
Magnitude (Debye)      :      4.99318

Dispersion correction in the Hessian             ... done   (      1.5 sec)

VIBRATIONAL FREQUENCIES
-----------------------

Scaling factor for frequencies =  1.000000000  (already applied!)

   0:         0.00 cm**-1
   1:         0.00 cm**-1
   2:         0.00 cm**-1
   3:         0.00 cm**-1
   4:         0.00 cm**-1
   5:         0.00 cm**-1
   6:        16.55 cm**-1
   7:        21.33 cm**-1
   8:        39.24 cm**-1
   9:        65.65 cm**-1
  10:        84.27 cm**-1
  11:       100.38 cm**-1
  12:       113.67 cm**-1
  13:       129.62 cm**-1
  14:       173.35 cm**-1
  15:       189.02 cm**-1
  16:       201.21 cm**-1
  17:       221.54 cm**-1
  18:       236.29 cm**-1
  19:       252.18 cm**-1
  20:       268.38 cm**-1
  21:       302.55 cm**-1
  22:       314.50 cm**-1
  23:       321.24 cm**-1
  24:       364.04 cm**-1
  25:       450.37 cm**-1
  26:       467.60 cm**-1
  27:       492.53 cm**-1
  28:       519.96 cm**-1
  29:       521.09 cm**-1
  30:       546.92 cm**-1
  31:       556.59 cm**-1
  32:       602.11 cm**-1
  33:       612.59 cm**-1
  34:       643.69 cm**-1
  35:       664.56 cm**-1
  36:       696.25 cm**-1
  37:       703.28 cm**-1
  38:       737.83 cm**-1
  39:       759.29 cm**-1
  40:       777.09 cm**-1
  41:       836.97 cm**-1
  42:       848.80 cm**-1
  43:       856.71 cm**-1
  44:       863.28 cm**-1
  45:       866.01 cm**-1
  46:       895.59 cm**-1
  47:       964.21 cm**-1
  48:       979.30 cm**-1
  49:       981.86 cm**-1
  50:      1010.56 cm**-1
  51:      1012.00 cm**-1
  52:      1028.03 cm**-1
  53:      1061.99 cm**-1
  54:      1062.33 cm**-1
  55:      1115.10 cm**-1
  56:      1161.45 cm**-1
  57:      1168.79 cm**-1
  58:      1174.76 cm**-1
  59:      1212.39 cm**-1
  60:      1213.91 cm**-1
  61:      1223.78 cm**-1
  62:      1252.49 cm**-1
  63:      1262.67 cm**-1
  64:      1295.63 cm**-1
  65:      1307.84 cm**-1
  66:      1348.17 cm**-1
  67:      1360.20 cm**-1
  68:      1396.61 cm**-1
  69:      1411.43 cm**-1
  70:      1452.92 cm**-1
  71:      1463.44 cm**-1
  72:      1469.93 cm**-1
  73:      1471.28 cm**-1
  74:      1483.49 cm**-1
  75:      1487.11 cm**-1
  76:      1493.57 cm**-1
  77:      1526.80 cm**-1
  78:      1572.49 cm**-1
  79:      1581.63 cm**-1
  80:      1596.71 cm**-1
  81:      1640.46 cm**-1
  82:      1680.11 cm**-1
  83:      3030.84 cm**-1
  84:      3032.66 cm**-1
  85:      3079.39 cm**-1
  86:      3100.99 cm**-1
  87:      3112.70 cm**-1
  88:      3154.48 cm**-1
  89:      3156.93 cm**-1
  90:      3194.57 cm**-1
  91:      3196.60 cm**-1
  92:      3209.96 cm**-1
  93:      3216.65 cm**-1
  94:      3229.96 cm**-1
  95:      3236.85 cm**-1

IR SPECTRUM
-----------

 Mode   freq       eps      Int      T**2         TX        TY        TZ
       cm**-1   L/(mol*cm) km/mol    a.u.
----------------------------------------------------------------------------
  6:     16.55   0.000609    3.08  0.011480  ( 0.040157 -0.097391 -0.019568)
  7:     21.33   0.000076    0.38  0.001108  ( 0.017430  0.007090  0.027455)
  8:     39.24   0.000243    1.23  0.001932  ( 0.006645  0.009433 -0.042414)
  9:     65.65   0.000090    0.45  0.000427  ( 0.017277  0.005230 -0.010040)
 10:     84.27   0.000272    1.37  0.001007  ( 0.012478  0.029154 -0.001031)
 11:    100.38   0.000038    0.19  0.000120  ( 0.009495 -0.005086 -0.001876)
 12:    113.67   0.000555    2.81  0.001525  (-0.017612  0.033690  0.008935)
 13:    129.62   0.001885    9.52  0.004537  ( 0.003779 -0.064386 -0.019430)
 14:    173.35   0.000091    0.46  0.000164  ( 0.003972  0.003009 -0.011790)
 15:    189.02   0.000178    0.90  0.000294  ( 0.014599  0.005165  0.007334)
 16:    201.21   0.000126    0.64  0.000195  ( 0.013317 -0.003333 -0.002623)
 17:    221.54   0.000230    1.16  0.000324  ( 0.013600  0.008897 -0.007766)
 18:    236.29   0.000946    4.78  0.001249  ( 0.002768  0.034690  0.006141)
 19:    252.18   0.000506    2.56  0.000626  (-0.024864  0.002758 -0.000420)
 20:    268.38   0.004141   20.93  0.004815  ( 0.059427  0.034578  0.009355)
 21:    302.55   0.000974    4.92  0.001005  ( 0.027485  0.005680 -0.014746)
 22:    314.50   0.000165    0.84  0.000164  ( 0.000097 -0.012408  0.003194)
 23:    321.24   0.000442    2.24  0.000430  (-0.009495  0.000325  0.018427)
 24:    364.04   0.000712    3.60  0.000611  (-0.009162 -0.008683 -0.021247)
 25:    450.37   0.006309   31.88  0.004371  ( 0.060419  0.023550  0.012891)
 26:    467.60   0.000892    4.51  0.000595  (-0.000841 -0.020827 -0.012677)
 27:    492.53   0.000357    1.80  0.000226  ( 0.008567  0.005919  0.010845)
 28:    519.96   0.000283    1.43  0.000170  (-0.010283 -0.007876 -0.001393)
 29:    521.09   0.000907    4.58  0.000543  ( 0.000662 -0.022954 -0.003950)
 30:    546.92   0.002714   13.71  0.001548  (-0.031330 -0.015292 -0.018250)
 31:    556.59   0.019294   97.50  0.010817  ( 0.076696  0.016595  0.068262)
 32:    602.11   0.006762   34.17  0.003505  ( 0.008219 -0.058303 -0.006169)
 33:    612.59   0.016651   84.15  0.008482  ( 0.076520  0.045165  0.024230)
 34:    643.69   0.001319    6.67  0.000640  ( 0.019074 -0.014323 -0.008406)
 35:    664.56   0.002633   13.31  0.001236  ( 0.017906  0.025152 -0.016827)
 36:    696.25   0.002090   10.56  0.000937  ( 0.012753 -0.017232 -0.021841)
 37:    703.28   0.001562    7.89  0.000693  ( 0.000654 -0.020345 -0.016695)
 38:    737.83   0.000623    3.15  0.000264  (-0.004771  0.001446 -0.015452)
 39:    759.29   0.001796    9.08  0.000738  (-0.009625  0.022944  0.010913)
 40:    777.09   0.006323   31.96  0.002539  ( 0.025570 -0.043049  0.005686)
 41:    836.97   0.008267   41.78  0.003082  ( 0.036076 -0.039250 -0.015505)
 42:    848.80   0.014834   74.96  0.005454  ( 0.029395  0.014594  0.066157)
 43:    856.71   0.017225   87.05  0.006275  ( 0.037577 -0.059498 -0.036366)
 44:    863.28   0.002430   12.28  0.000879  ( 0.027252  0.009694 -0.006478)
 45:    866.01   0.006666   33.69  0.002402  (-0.007424  0.048260 -0.004234)
 46:    895.59   0.002516   12.72  0.000877  ( 0.008303 -0.028421  0.000337)
 47:    964.21   0.013079   66.10  0.004233  (-0.036253  0.012995 -0.052440)
 48:    979.30   0.002600   13.14  0.000828  (-0.021169 -0.011609 -0.015671)
 49:    981.86   0.001378    6.97  0.000438  ( 0.004440  0.005965 -0.019565)
 50:   1010.56   0.009044   45.70  0.002793  ( 0.027287 -0.045128  0.003408)
 51:   1012.00   0.003238   16.36  0.000999  ( 0.002140  0.000077  0.031527)
 52:   1028.03   0.043806  221.38  0.013297  (-0.088504 -0.071891  0.017207)
 53:   1061.99   0.030399  153.63  0.008933  (-0.063895 -0.039864 -0.057106)
 54:   1062.33   0.002194   11.09  0.000644  ( 0.021035 -0.006225  0.012777)
 55:   1115.10   0.108249  547.04  0.030294  (-0.152363 -0.060839 -0.058119)
 56:   1161.45   0.003281   16.58  0.000882  (-0.024728 -0.014604 -0.007538)
 57:   1168.79   0.000161    0.82  0.000043  ( 0.001927 -0.004977 -0.003819)
 58:   1174.76   0.006067   30.66  0.001612  (-0.036409 -0.003856 -0.016464)
 59:   1212.39   0.006670   33.71  0.001717  ( 0.015358 -0.006494  0.037931)
 60:   1213.91   0.002071   10.46  0.000532  ( 0.009240  0.014183  0.015677)
 61:   1223.78   0.060193  304.19  0.015349  (-0.107132 -0.061764 -0.007565)
 62:   1252.49   0.133436  674.33  0.033246  ( 0.149456  0.097730 -0.036851)
 63:   1262.67   0.057468  290.42  0.014203  (-0.098864 -0.062099 -0.023929)
 64:   1295.63   0.076962  388.94  0.018537  (-0.113366 -0.073503 -0.016809)
 65:   1307.84   0.037021  187.09  0.008834  (-0.057766 -0.018317 -0.071841)
 66:   1348.17   0.020525  103.73  0.004751  ( 0.057068  0.038614 -0.001764)
 67:   1360.20   0.023465  118.58  0.005383  (-0.032431 -0.043810  0.049116)
 68:   1396.61   0.030939  156.35  0.006913  ( 0.058411  0.032441  0.049485)
 69:   1411.43   0.006910   34.92  0.001528  (-0.024967 -0.013237 -0.027004)
 70:   1452.92   0.017407   87.97  0.003739  (-0.051823 -0.013914 -0.029317)
 71:   1463.44   0.006687   33.79  0.001426  (-0.035886 -0.011184 -0.003614)
 72:   1469.93   0.002230   11.27  0.000473  (-0.008487  0.020031  0.000275)
 73:   1471.28   0.010039   50.73  0.002129  (-0.042443 -0.005965 -0.017097)
 74:   1483.49   0.002666   13.47  0.000561  ( 0.005999 -0.021602 -0.007624)
 75:   1487.11   0.021107  106.67  0.004429  (-0.007339 -0.005387 -0.065927)
 76:   1493.57   0.003935   19.88  0.000822  (-0.022715 -0.014895  0.009181)
 77:   1526.80   0.013268   67.05  0.002712  ( 0.046049  0.015841  0.018451)
 78:   1572.49   0.146623  740.97  0.029098  (-0.073082 -0.048856 -0.146184)
 79:   1581.63   0.012375   62.54  0.002442  ( 0.027372  0.005130 -0.040819)
 80:   1596.71   0.143472  725.05  0.028041  ( 0.094629  0.021467  0.136473)
 81:   1640.46   0.270253  1365.75  0.051410  (-0.197030 -0.112178 -0.002295)
 82:   1680.11   0.026934  136.11  0.005003  ( 0.059097  0.034883 -0.017131)
 83:   3030.84   0.010198   51.54  0.001050  (-0.028180 -0.015989 -0.000491)
 84:   3032.66   0.010738   54.27  0.001105  (-0.015749 -0.020687  0.020713)
 85:   3079.39   0.004009   20.26  0.000406  ( 0.010253 -0.017349  0.000363)
 86:   3100.99   0.006391   32.30  0.000643  ( 0.010534 -0.020118 -0.011290)
 87:   3112.70   0.004292   21.69  0.000430  (-0.003124 -0.001976 -0.020412)
 88:   3154.48   0.003733   18.86  0.000369  ( 0.017505  0.006153  0.004995)
 89:   3156.93   0.000261    1.32  0.000026  (-0.004312 -0.001949  0.001841)
 90:   3194.57   0.000371    1.88  0.000036  ( 0.003272  0.001605 -0.004793)
 91:   3196.60   0.000318    1.61  0.000031  (-0.004726 -0.002127 -0.002054)
 92:   3209.96   0.001126    5.69  0.000109  ( 0.009463  0.002368  0.003787)
 93:   3216.65   0.002540   12.83  0.000246  ( 0.009776  0.007629  0.009623)
 94:   3229.96   0.000337    1.70  0.000033  ( 0.000877 -0.002386  0.005108)
 95:   3236.85   0.000770    3.89  0.000074  ( 0.001280  0.000764  0.008484)

--------------------------
THERMOCHEMISTRY AT 298.15K
--------------------------

Temperature         ... 298.15 K
Pressure            ... 1.00 atm
Total Mass          ... 276.32 AMU

Throughout the following assumptions are being made:
  (1) The electronic state is orbitally nondegenerate
  (2) There are no thermally accessible electronically excited states
  (3) Hindered rotations indicated by low frequency modes are not
      treated as such but are treated as vibrations and this may
      cause some error
  (4) All equations used are the standard statistical mechanics
      equations for an ideal gas
  (5) All vibrations are strictly harmonic

freq.      16.55  E(vib)   ...       0.57
freq.      21.33  E(vib)   ...       0.56
freq.      39.24  E(vib)   ...       0.54
freq.      65.65  E(vib)   ...       0.50
freq.      84.27  E(vib)   ...       0.48
freq.     100.38  E(vib)   ...       0.46
freq.     113.67  E(vib)   ...       0.44
freq.     129.62  E(vib)   ...       0.43
freq.     173.35  E(vib)   ...       0.38
freq.     189.02  E(vib)   ...       0.36
freq.     201.21  E(vib)   ...       0.35
freq.     221.54  E(vib)   ...       0.33
freq.     236.29  E(vib)   ...       0.32
freq.     252.18  E(vib)   ...       0.30
freq.     268.38  E(vib)   ...       0.29
freq.     302.55  E(vib)   ...       0.26
freq.     314.50  E(vib)   ...       0.25
freq.     321.24  E(vib)   ...       0.25
freq.     364.04  E(vib)   ...       0.22
freq.     450.37  E(vib)   ...       0.17
freq.     467.60  E(vib)   ...       0.16
freq.     492.53  E(vib)   ...       0.14
freq.     519.96  E(vib)   ...       0.13
freq.     521.09  E(vib)   ...       0.13
freq.     546.92  E(vib)   ...       0.12
freq.     556.59  E(vib)   ...       0.12
freq.     602.11  E(vib)   ...       0.10
freq.     612.59  E(vib)   ...       0.10
freq.     643.69  E(vib)   ...       0.09
freq.     664.56  E(vib)   ...       0.08
freq.     696.25  E(vib)   ...       0.07
freq.     703.28  E(vib)   ...       0.07
freq.     737.83  E(vib)   ...       0.06
freq.     759.29  E(vib)   ...       0.06
freq.     777.09  E(vib)   ...       0.05
freq.     836.97  E(vib)   ...       0.04
freq.     848.80  E(vib)   ...       0.04
freq.     856.71  E(vib)   ...       0.04
freq.     863.28  E(vib)   ...       0.04
freq.     866.01  E(vib)   ...       0.04
freq.     895.59  E(vib)   ...       0.03
freq.     964.21  E(vib)   ...       0.03
freq.     979.30  E(vib)   ...       0.03
freq.     981.86  E(vib)   ...       0.02
freq.    1010.56  E(vib)   ...       0.02
freq.    1012.00  E(vib)   ...       0.02
freq.    1028.03  E(vib)   ...       0.02
freq.    1061.99  E(vib)   ...       0.02
freq.    1062.33  E(vib)   ...       0.02
freq.    1115.10  E(vib)   ...       0.01
freq.    1161.45  E(vib)   ...       0.01
freq.    1168.79  E(vib)   ...       0.01
freq.    1174.76  E(vib)   ...       0.01
freq.    1212.39  E(vib)   ...       0.01
freq.    1213.91  E(vib)   ...       0.01
freq.    1223.78  E(vib)   ...       0.01
freq.    1252.49  E(vib)   ...       0.01
freq.    1262.67  E(vib)   ...       0.01
freq.    1295.63  E(vib)   ...       0.01
freq.    1307.84  E(vib)   ...       0.01
freq.    1348.17  E(vib)   ...       0.01
freq.    1360.20  E(vib)   ...       0.01
freq.    1396.61  E(vib)   ...       0.00
freq.    1411.43  E(vib)   ...       0.00
freq.    1452.92  E(vib)   ...       0.00
freq.    1463.44  E(vib)   ...       0.00
freq.    1469.93  E(vib)   ...       0.00
freq.    1471.28  E(vib)   ...       0.00
freq.    1483.49  E(vib)   ...       0.00
freq.    1487.11  E(vib)   ...       0.00
freq.    1493.57  E(vib)   ...       0.00
freq.    1526.80  E(vib)   ...       0.00
freq.    1572.49  E(vib)   ...       0.00
freq.    1581.63  E(vib)   ...       0.00
freq.    1596.71  E(vib)   ...       0.00
freq.    1640.46  E(vib)   ...       0.00
freq.    1680.11  E(vib)   ...       0.00
freq.    3030.84  E(vib)   ...       0.00
freq.    3032.66  E(vib)   ...       0.00
freq.    3079.39  E(vib)   ...       0.00
freq.    3100.99  E(vib)   ...       0.00
freq.    3112.70  E(vib)   ...       0.00
freq.    3154.48  E(vib)   ...       0.00
freq.    3156.93  E(vib)   ...       0.00
freq.    3194.57  E(vib)   ...       0.00
freq.    3196.60  E(vib)   ...       0.00
freq.    3209.96  E(vib)   ...       0.00
freq.    3216.65  E(vib)   ...       0.00
freq.    3229.96  E(vib)   ...       0.00
freq.    3236.85  E(vib)   ...       0.00

------------
INNER ENERGY
------------

The inner energy is: U= E(el) + E(ZPE) + E(vib) + E(rot) + E(trans)
    E(el)   - is the total energy from the electronic structure calculation
              = E(kin-el) + E(nuc-el) + E(el-el) + E(nuc-nuc)
    E(ZPE)  - the the zero temperature vibrational energy from the frequency calculation
    E(vib)  - the the finite temperature correction to E(ZPE) due to population
              of excited vibrational states
    E(rot)  - is the rotational thermal energy
    E(trans)- is the translational thermal energy

Summary of contributions to the inner energy U:
Electronic energy                ...  -1227.75433845 Eh
Zero point energy                ...      0.24196907 Eh     151.84 kcal/mol
Thermal vibrational correction   ...      0.01517170 Eh       9.52 kcal/mol
Thermal rotational correction    ...      0.00141627 Eh       0.89 kcal/mol
Thermal translational correction ...      0.00141627 Eh       0.89 kcal/mol
-----------------------------------------------------------------------
Total thermal energy                  -1227.49436514 Eh

Summary of corrections to the electronic energy:
(perhaps to be used in another calculation)
Total thermal correction                  0.01800424 Eh      11.30 kcal/mol
Non-thermal (ZPE) correction              0.24196907 Eh     151.84 kcal/mol
-----------------------------------------------------------------------
Total correction                          0.25997331 Eh     163.14 kcal/mol

--------
ENTHALPY
--------

The enthalpy is H = U + kB*T
                kB is Boltzmann's constant
Total free energy                 ...  -1227.49436514 Eh
Thermal Enthalpy correction       ...      0.00094421 Eh       0.59 kcal/mol
-----------------------------------------------------------------------
Total Enthalpy                    ...  -1227.49342093 Eh

Note: Only C1 symmetry has been detected, increase convergence thresholds
      if your molecule has a higher symmetry. Symmetry factor of 1.0 is
      used for the rotational entropy correction.

Note: Rotational entropy computed according to Herzberg
Infrared and Raman Spectra, Chapter V,1, Van Nostrand Reinhold, 1945
Point Group:  C1, Symmetry Number:   1
Rotational constants in cm-1:     0.035604     0.003976     0.003622

                             ****ORCA TERMINATED NORMALLY****
TOTAL RUN TIME: 0 days 1 hours 3 minutes 26 seconds 727 msec
