                         Program Version 5.0.4 -  RELEASE  -
|  1> ! cam-b3lyp def2-TZVP(-f) def2/J RIJCOSX tightSCF noautostart miniprint nopop
|  2> %maxcore  1800
|  3> %pal nprocs   8 end
|  4> ! CPCM(DMF)
|  5> %tddft
|  6> nroots 20
|  7> TDA false
|  8> end
|  9> * xyz   0   1
| 10> S      4.66848500    9.29092100    8.39496900
| 11> F      1.41094300    6.31119500    6.87491600
| 12> O      2.65407100    8.24011100    3.43250700
| 13> O     -2.77044700    5.39748300    4.83533100
| 14> C      0.56631700    6.50071400    5.82950700
| 15> C     -0.65053100    5.84982300    5.91598000
| 16> H     -0.85929000    5.25437100    6.79137100
| 17> C     -1.55388300    5.97874300    4.86171700
| 18> C     -1.20588300    6.74824600    3.74158500
| 19> H     -1.91417800    6.84465400    2.92976700
| 20> C      0.02299800    7.36313400    3.69044600
| 21> H      0.29751000    7.94896300    2.82430500
| 22> C      0.95779600    7.27387000    4.73869500
| 23> C      2.26152200    7.97531100    4.57212400
| 24> C      3.01784900    8.38106900    5.76054500
| 25> H      2.58874300    8.19158700    6.73306900
| 26> C      4.20991900    8.99924700    5.64041400
| 27> H      4.59626600    9.16796900    4.63995800
| 28> C      5.04818800    9.47203400    6.69941400
| 29> C      6.25224800   10.12532900    6.54875000
| 30> H      6.67148800   10.33802900    5.57383200
| 31> C      6.87618600   10.48677900    7.77212300
| 32> C      6.12462700   10.09275000    8.84842500
| 33> H      6.35392900   10.23262800    9.89361000
| 34> C     -3.16085600    4.58446000    5.95054900
| 35> H     -4.15633100    4.22022000    5.71336400
| 36> H     -3.19032200    5.17534100    6.86783700
| 37> H     -2.47672500    3.74261000    6.07153900
| 38> C      8.18720100   11.20812900    7.86815500
| 39> H      8.97959900   10.64407100    7.37080200
| 40> H      8.47542600   11.35908700    8.90809700
| 41> H      8.13013400   12.18562300    7.38339700
| 42>  *
| 43>
| 44>                          ****END OF INPUT****

CARTESIAN COORDINATES (ANGSTROEM)
---------------------------------
  S      4.668485    9.290921    8.394969
  F      1.410943    6.311195    6.874916
  O      2.654071    8.240111    3.432507
  O     -2.770447    5.397483    4.835331
  C      0.566317    6.500714    5.829507
  C     -0.650531    5.849823    5.915980
  H     -0.859290    5.254371    6.791371
  C     -1.553883    5.978743    4.861717
  C     -1.205883    6.748246    3.741585
  H     -1.914178    6.844654    2.929767
  C      0.022998    7.363134    3.690446
  H      0.297510    7.948963    2.824305
  C      0.957796    7.273870    4.738695
  C      2.261522    7.975311    4.572124
  C      3.017849    8.381069    5.760545
  H      2.588743    8.191587    6.733069
  C      4.209919    8.999247    5.640414
  H      4.596266    9.167969    4.639958
  C      5.048188    9.472034    6.699414
  C      6.252248   10.125329    6.548750
  H      6.671488   10.338029    5.573832
  C      6.876186   10.486779    7.772123
  C      6.124627   10.092750    8.848425
  H      6.353929   10.232628    9.893610
  C     -3.160856    4.584460    5.950549
  H     -4.156331    4.220220    5.713364
  H     -3.190322    5.175341    6.867837
  H     -2.476725    3.742610    6.071539
  C      8.187201   11.208129    7.868155
  H      8.979599   10.644071    7.370802
  H      8.475426   11.359087    8.908097
  H      8.130134   12.185623    7.383397

ORBITAL ENERGIES
----------------

  NO   OCC          E(Eh)            E(eV)
   0   2.0000     -88.960740     -2420.7448
   1   2.0000     -24.781056      -674.3268
   2   2.0000     -19.246373      -523.7204
   3   2.0000     -19.186550      -522.0926
   4   2.0000     -10.354780      -281.7679
   5   2.0000     -10.346621      -281.5459
   6   2.0000     -10.332694      -281.1669
   7   2.0000     -10.295894      -280.1655
   8   2.0000     -10.287703      -279.9426
   9   2.0000     -10.279295      -279.7138
  10   2.0000     -10.277085      -279.6537
  11   2.0000     -10.267047      -279.3805
  12   2.0000     -10.266544      -279.3669
  13   2.0000     -10.262908      -279.2679
  14   2.0000     -10.260276      -279.1963
  15   2.0000     -10.258613      -279.1511
  16   2.0000     -10.253552      -279.0133
  17   2.0000     -10.251710      -278.9632
  18   2.0000     -10.239941      -278.6429
  19   2.0000      -8.038098      -218.7278
  20   2.0000      -6.001781      -163.3168
  21   2.0000      -5.997615      -163.2034
  22   2.0000      -5.995160      -163.1366
  23   2.0000      -1.321831       -35.9689
  24   2.0000      -1.165235       -31.7077
  25   2.0000      -1.122861       -30.5546
  26   2.0000      -0.979314       -26.6485
  27   2.0000      -0.961870       -26.1738
  28   2.0000      -0.898112       -24.4389
  29   2.0000      -0.865388       -23.5484
  30   2.0000      -0.851006       -23.1571
  31   2.0000      -0.847252       -23.0549
  32   2.0000      -0.821703       -22.3597
  33   2.0000      -0.795555       -21.6482
  34   2.0000      -0.761334       -20.7170
  35   2.0000      -0.731553       -19.9066
  36   2.0000      -0.712973       -19.4010
  37   2.0000      -0.691437       -18.8150
  38   2.0000      -0.656536       -17.8652
  39   2.0000      -0.632489       -17.2109
  40   2.0000      -0.625066       -17.0089
  41   2.0000      -0.609752       -16.5922
  42   2.0000      -0.594111       -16.1666
  43   2.0000      -0.586655       -15.9637
  44   2.0000      -0.575188       -15.6517
  45   2.0000      -0.562666       -15.3109
  46   2.0000      -0.547725       -14.9043
  47   2.0000      -0.546945       -14.8831
  48   2.0000      -0.529169       -14.3994
  49   2.0000      -0.519381       -14.1331
  50   2.0000      -0.512476       -13.9452
  51   2.0000      -0.500252       -13.6125
  52   2.0000      -0.497170       -13.5287
  53   2.0000      -0.492259       -13.3951
  54   2.0000      -0.488395       -13.2899
  55   2.0000      -0.478047       -13.0083
  56   2.0000      -0.462924       -12.5968
  57   2.0000      -0.459413       -12.5013
  58   2.0000      -0.455897       -12.4056
  59   2.0000      -0.448810       -12.2127
  60   2.0000      -0.438733       -11.9385
  61   2.0000      -0.435276       -11.8445
  62   2.0000      -0.431952       -11.7540
  63   2.0000      -0.415215       -11.2986
  64   2.0000      -0.404337       -11.0026
  65   2.0000      -0.396880       -10.7997
  66   2.0000      -0.369314       -10.0496
  67   2.0000      -0.336568        -9.1585
  68   2.0000      -0.323817        -8.8115
  69   2.0000      -0.310996        -8.4626
  70   2.0000      -0.296299        -8.0627
  71   2.0000      -0.276080        -7.5125
  72   0.0000      -0.052960        -1.4411
  73   0.0000       0.012140         0.3304
  74   0.0000       0.024596         0.6693
  75   0.0000       0.063805         1.7362
  76   0.0000       0.065741         1.7889

Total SCF time: 0 days 0 hours 3 min 28 sec

-----------------------------------------------------------------------------
         ABSORPTION SPECTRUM VIA TRANSITION ELECTRIC DIPOLE MOMENTS
-----------------------------------------------------------------------------
State   Energy    Wavelength  fosc         T2        TX        TY        TZ
        (cm-1)      (nm)                 (au**2)    (au)      (au)      (au)
-----------------------------------------------------------------------------
   1   28801.4    347.2   0.940343356  10.74851  -2.51663  -1.38579  -1.57945
   2   30668.8    326.1   0.003030901   0.03253  -0.05807  -0.03003   0.16811
   3   35542.7    281.4   0.319409190   2.95851   1.38248   0.80568  -0.63099
   4   36941.8    270.7   0.072118713   0.64270   0.70767   0.35668   0.12115
   5   39352.4    254.1   0.015030595   0.12574   0.33176   0.11365   0.05252
   6   44208.4    226.2   0.028920800   0.21537   0.31898   0.22662  -0.24953
   7   45403.3    220.2   0.112841370   0.81819  -0.42379   0.21821  -0.76875
   8   47646.2    209.9   0.000350222   0.00242  -0.04647   0.00044  -0.01613
   9   48601.8    205.8   0.031591375   0.21399  -0.17380  -0.22945   0.36212
  10   48966.7    204.2   0.036593978   0.24603   0.43504   0.19861   0.13162
  11   51099.1    195.7   0.000762534   0.00491   0.05921   0.03693  -0.00653
  12   51640.3    193.6   0.002573253   0.01640  -0.01772  -0.12663   0.00744
  13   51850.3    192.9   0.029121524   0.18490   0.38253   0.19099  -0.04576
  14   52788.5    189.4   0.022220980   0.13858  -0.33714  -0.15556  -0.02677
  15   52991.7    188.7   0.028727327   0.17847  -0.34945  -0.02464  -0.23611
  16   54040.3    185.0   0.796770673   4.85391   1.79527   1.16058  -0.53287
  17   55182.0    181.2   0.311597242   1.85897  -1.11991  -0.12539  -0.76749
  18   55698.1    179.5   0.100700187   0.59520  -0.32910  -0.43865   0.54267
  19   56489.8    177.0   0.019015447   0.11082   0.01756  -0.13202   0.30509
  20   57039.4    175.3   0.025937979   0.14971  -0.36597  -0.11700  -0.04561

FINAL SINGLE POINT ENERGY     -1227.678650211639

DIPOLE MOMENT
-------------
                                X             Y             Z
Electronic contribution:     -3.68265      -3.53214       0.05761
Nuclear contribution   :      3.37892       3.31606       1.77557
                        -----------------------------------------
Total Dipole Moment    :     -0.30373      -0.21608       1.83318
                        -----------------------------------------
Magnitude (a.u.)       :      1.87069
Magnitude (Debye)      :      4.75492

Rotational constants in cm-1:     0.035604     0.003976     0.003622
Rotational constants in MHz :  1067.394451   119.186470   108.598124

                             ****ORCA TERMINATED NORMALLY****
TOTAL RUN TIME: 0 days 0 hours 9 minutes 12 seconds 953 msec
