                         Program Version 5.0.4 -  RELEASE  -
|  1> ! PBE0 def2-TZVP(-f) def2/J RIJCOSX tightSCF noautostart miniprint nopop
|  2> %maxcore  1800
|  3> %pal nprocs   8 end
|  4> ! CPCM(DMF)
|  5> %tddft
|  6> nroots 20
|  7> TDA false
|  8> end
|  9> * xyz   0   1
| 10> S      4.66848500    9.29092100    8.39496900
| 11> F      1.41094300    6.31119500    6.87491600
| 12> O      2.65407100    8.24011100    3.43250700
| 13> O     -2.77044700    5.39748300    4.83533100
| 14> C      0.56631700    6.50071400    5.82950700
| 15> C     -0.65053100    5.84982300    5.91598000
| 16> H     -0.85929000    5.25437100    6.79137100
| 17> C     -1.55388300    5.97874300    4.86171700
| 18> C     -1.20588300    6.74824600    3.74158500
| 19> H     -1.91417800    6.84465400    2.92976700
| 20> C      0.02299800    7.36313400    3.69044600
| 21> H      0.29751000    7.94896300    2.82430500
| 22> C      0.95779600    7.27387000    4.73869500
| 23> C      2.26152200    7.97531100    4.57212400
| 24> C      3.01784900    8.38106900    5.76054500
| 25> H      2.58874300    8.19158700    6.73306900
| 26> C      4.20991900    8.99924700    5.64041400
| 27> H      4.59626600    9.16796900    4.63995800
| 28> C      5.04818800    9.47203400    6.69941400
| 29> C      6.25224800   10.12532900    6.54875000
| 30> H      6.67148800   10.33802900    5.57383200
| 31> C      6.87618600   10.48677900    7.77212300
| 32> C      6.12462700   10.09275000    8.84842500
| 33> H      6.35392900   10.23262800    9.89361000
| 34> C     -3.16085600    4.58446000    5.95054900
| 35> H     -4.15633100    4.22022000    5.71336400
| 36> H     -3.19032200    5.17534100    6.86783700
| 37> H     -2.47672500    3.74261000    6.07153900
| 38> C      8.18720100   11.20812900    7.86815500
| 39> H      8.97959900   10.64407100    7.37080200
| 40> H      8.47542600   11.35908700    8.90809700
| 41> H      8.13013400   12.18562300    7.38339700
| 42>  *
| 43>
| 44>                          ****END OF INPUT****

CARTESIAN COORDINATES (ANGSTROEM)
---------------------------------
  S      4.668485    9.290921    8.394969
  F      1.410943    6.311195    6.874916
  O      2.654071    8.240111    3.432507
  O     -2.770447    5.397483    4.835331
  C      0.566317    6.500714    5.829507
  C     -0.650531    5.849823    5.915980
  H     -0.859290    5.254371    6.791371
  C     -1.553883    5.978743    4.861717
  C     -1.205883    6.748246    3.741585
  H     -1.914178    6.844654    2.929767
  C      0.022998    7.363134    3.690446
  H      0.297510    7.948963    2.824305
  C      0.957796    7.273870    4.738695
  C      2.261522    7.975311    4.572124
  C      3.017849    8.381069    5.760545
  H      2.588743    8.191587    6.733069
  C      4.209919    8.999247    5.640414
  H      4.596266    9.167969    4.639958
  C      5.048188    9.472034    6.699414
  C      6.252248   10.125329    6.548750
  H      6.671488   10.338029    5.573832
  C      6.876186   10.486779    7.772123
  C      6.124627   10.092750    8.848425
  H      6.353929   10.232628    9.893610
  C     -3.160856    4.584460    5.950549
  H     -4.156331    4.220220    5.713364
  H     -3.190322    5.175341    6.867837
  H     -2.476725    3.742610    6.071539
  C      8.187201   11.208129    7.868155
  H      8.979599   10.644071    7.370802
  H      8.475426   11.359087    8.908097
  H      8.130134   12.185623    7.383397

ORBITAL ENERGIES
----------------

  NO   OCC          E(Eh)            E(eV)
   0   2.0000     -89.057800     -2423.3859
   1   2.0000     -24.796028      -674.7342
   2   2.0000     -19.257200      -524.0151
   3   2.0000     -19.191089      -522.2161
   4   2.0000     -10.330704      -281.1127
   5   2.0000     -10.318830      -280.7896
   6   2.0000     -10.309340      -280.5314
   7   2.0000     -10.271732      -279.5080
   8   2.0000     -10.269884      -279.4577
   9   2.0000     -10.258896      -279.1588
  10   2.0000     -10.256292      -279.0879
  11   2.0000     -10.245860      -278.8040
  12   2.0000     -10.244667      -278.7716
  13   2.0000     -10.244555      -278.7685
  14   2.0000     -10.238726      -278.6099
  15   2.0000     -10.238399      -278.6010
  16   2.0000     -10.232554      -278.4419
  17   2.0000     -10.230456      -278.3849
  18   2.0000     -10.218273      -278.0533
  19   2.0000      -8.035926      -218.6687
  20   2.0000      -5.972088      -162.5088
  21   2.0000      -5.968213      -162.4033
  22   2.0000      -5.965954      -162.3419
  23   2.0000      -1.271679       -34.6041
  24   2.0000      -1.113274       -30.2937
  25   2.0000      -1.067389       -29.0451
  26   2.0000      -0.921701       -25.0808
  27   2.0000      -0.903294       -24.5799
  28   2.0000      -0.839471       -22.8432
  29   2.0000      -0.807020       -21.9601
  30   2.0000      -0.792578       -21.5671
  31   2.0000      -0.788644       -21.4601
  32   2.0000      -0.763791       -20.7838
  33   2.0000      -0.737524       -20.0691
  34   2.0000      -0.703592       -19.1457
  35   2.0000      -0.674304       -18.3487
  36   2.0000      -0.655646       -17.8410
  37   2.0000      -0.634418       -17.2634
  38   2.0000      -0.599557       -16.3148
  39   2.0000      -0.576709       -15.6930
  40   2.0000      -0.569426       -15.4949
  41   2.0000      -0.552738       -15.0408
  42   2.0000      -0.537496       -14.6260
  43   2.0000      -0.531313       -14.4578
  44   2.0000      -0.519378       -14.1330
  45   2.0000      -0.503867       -13.7109
  46   2.0000      -0.493106       -13.4181
  47   2.0000      -0.489532       -13.3209
  48   2.0000      -0.472756       -12.8643
  49   2.0000      -0.463099       -12.6016
  50   2.0000      -0.457370       -12.4457
  51   2.0000      -0.446395       -12.1470
  52   2.0000      -0.441473       -12.0131
  53   2.0000      -0.437784       -11.9127
  54   2.0000      -0.431907       -11.7528
  55   2.0000      -0.422701       -11.5023
  56   2.0000      -0.408493       -11.1157
  57   2.0000      -0.405693       -11.0395
  58   2.0000      -0.401156       -10.9160
  59   2.0000      -0.394833       -10.7439
  60   2.0000      -0.386515       -10.5176
  61   2.0000      -0.382355       -10.4044
  62   2.0000      -0.379096       -10.3157
  63   2.0000      -0.362435        -9.8624
  64   2.0000      -0.355204        -9.6656
  65   2.0000      -0.344213        -9.3665
  66   2.0000      -0.320113        -8.7107
  67   2.0000      -0.282985        -7.7004
  68   2.0000      -0.276492        -7.5237
  69   2.0000      -0.267744        -7.2857
  70   2.0000      -0.253093        -6.8870
  71   2.0000      -0.235805        -6.4166
  72   0.0000      -0.089606        -2.4383
  73   0.0000      -0.027899        -0.7592
  74   0.0000      -0.015679        -0.4266
  75   0.0000       0.020083         0.5465
  76   0.0000       0.023091         0.6283

Total SCF time: 0 days 0 hours 2 min 21 sec

-----------------------------------------------------------------------------
         ABSORPTION SPECTRUM VIA TRANSITION ELECTRIC DIPOLE MOMENTS
-----------------------------------------------------------------------------
State   Energy    Wavelength  fosc         T2        TX        TY        TZ
        (cm-1)      (nm)                 (au**2)    (au)      (au)      (au)
-----------------------------------------------------------------------------
   1   26839.1    372.6   0.917024163  11.24832  -2.62422  -1.45083  -1.50230
   2   28474.9    351.2   0.009776443   0.11303   0.08304   0.04920   0.32204
   3   31176.1    320.8   0.134318385   1.41837  -0.84097  -0.50141   0.67803
   4   33252.2    300.7   0.107489787   1.06420  -0.87924  -0.45918  -0.28337
   5   35029.1    285.5   0.012058302   0.11333   0.29397   0.04603   0.15744
   6   40236.8    248.5   0.027885809   0.22816  -0.07789  -0.05346   0.46822
   7   42228.7    236.8   0.033731804   0.26297  -0.29703   0.07607  -0.41105
   8   43744.0    228.6   0.055975247   0.42126  -0.57626  -0.28931   0.07405
   9   44175.1    226.4   0.134923680   1.00551   0.76747   0.54152  -0.35107
  10   44897.7    222.7   0.008829924   0.06475   0.15478   0.02067   0.20090
  11   45833.4    218.2   0.000063347   0.00046  -0.01225   0.00932  -0.01477
  12   46244.1    216.2   0.012347359   0.08790   0.04775   0.16599  -0.24097
  13   46747.7    213.9   0.068565941   0.48286   0.58669   0.33832  -0.15556
  14   48560.5    205.9   0.001260866   0.00855   0.05297  -0.07575  -0.00222
  15   49049.9    203.9   0.034945100   0.23454   0.31614   0.29142  -0.22288
  16   49772.1    200.9   0.065824492   0.43539   0.59685   0.22883   0.16370
  17   50439.0    198.3   0.001052512   0.00687  -0.00169  -0.06144   0.05560
  18   50484.0    198.1   0.270303763   1.76268   1.16568   0.33339   0.54104
  19   50572.4    197.7   0.124902750   0.81308   0.09525   0.47708  -0.75921
  20   51321.5    194.9   0.000358403   0.00230   0.02506   0.03183  -0.02565

FINAL SINGLE POINT ENERGY     -1226.995446628267

DIPOLE MOMENT
-------------
                                X             Y             Z
Electronic contribution:     -3.64029      -3.51341       0.12223
Nuclear contribution   :      3.37892       3.31606       1.77557
                        -----------------------------------------
Total Dipole Moment    :     -0.26138      -0.19734       1.89779
                        -----------------------------------------
Magnitude (a.u.)       :      1.92585
Magnitude (Debye)      :      4.89511

Rotational constants in cm-1:     0.035604     0.003976     0.003622
Rotational constants in MHz :  1067.394451   119.186470   108.598124

                             ****ORCA TERMINATED NORMALLY****
TOTAL RUN TIME: 0 days 0 hours 7 minutes 43 seconds 997 msec
