                         Program Version 5.0.4 -  RELEASE  -
|  1> ! cam-b3lyp def2-TZVP(-f) def2/J RIJCOSX tightSCF noautostart miniprint nopop
|  2> %maxcore  1200
|  3> %pal nprocs   8 end
|  4> ! CPCM(DMF)
|  5> %tddft
|  6> nroots 150
|  7> TDA false
|  8> end
|  9> * xyz   0   1
| 10> S      4.66848500    9.29092100    8.39496900
| 11> F      1.41094300    6.31119500    6.87491600
| 12> O      2.65407100    8.24011100    3.43250700
| 13> O     -2.77044700    5.39748300    4.83533100
| 14> C      0.56631700    6.50071400    5.82950700
| 15> C     -0.65053100    5.84982300    5.91598000
| 16> H     -0.85929000    5.25437100    6.79137100
| 17> C     -1.55388300    5.97874300    4.86171700
| 18> C     -1.20588300    6.74824600    3.74158500
| 19> H     -1.91417800    6.84465400    2.92976700
| 20> C      0.02299800    7.36313400    3.69044600
| 21> H      0.29751000    7.94896300    2.82430500
| 22> C      0.95779600    7.27387000    4.73869500
| 23> C      2.26152200    7.97531100    4.57212400
| 24> C      3.01784900    8.38106900    5.76054500
| 25> H      2.58874300    8.19158700    6.73306900
| 26> C      4.20991900    8.99924700    5.64041400
| 27> H      4.59626600    9.16796900    4.63995800
| 28> C      5.04818800    9.47203400    6.69941400
| 29> C      6.25224800   10.12532900    6.54875000
| 30> H      6.67148800   10.33802900    5.57383200
| 31> C      6.87618600   10.48677900    7.77212300
| 32> C      6.12462700   10.09275000    8.84842500
| 33> H      6.35392900   10.23262800    9.89361000
| 34> C     -3.16085600    4.58446000    5.95054900
| 35> H     -4.15633100    4.22022000    5.71336400
| 36> H     -3.19032200    5.17534100    6.86783700
| 37> H     -2.47672500    3.74261000    6.07153900
| 38> C      8.18720100   11.20812900    7.86815500
| 39> H      8.97959900   10.64407100    7.37080200
| 40> H      8.47542600   11.35908700    8.90809700
| 41> H      8.13013400   12.18562300    7.38339700
| 42>  *
| 43>
| 44>                          ****END OF INPUT****

CARTESIAN COORDINATES (ANGSTROEM)
---------------------------------
  S      4.668485    9.290921    8.394969
  F      1.410943    6.311195    6.874916
  O      2.654071    8.240111    3.432507
  O     -2.770447    5.397483    4.835331
  C      0.566317    6.500714    5.829507
  C     -0.650531    5.849823    5.915980
  H     -0.859290    5.254371    6.791371
  C     -1.553883    5.978743    4.861717
  C     -1.205883    6.748246    3.741585
  H     -1.914178    6.844654    2.929767
  C      0.022998    7.363134    3.690446
  H      0.297510    7.948963    2.824305
  C      0.957796    7.273870    4.738695
  C      2.261522    7.975311    4.572124
  C      3.017849    8.381069    5.760545
  H      2.588743    8.191587    6.733069
  C      4.209919    8.999247    5.640414
  H      4.596266    9.167969    4.639958
  C      5.048188    9.472034    6.699414
  C      6.252248   10.125329    6.548750
  H      6.671488   10.338029    5.573832
  C      6.876186   10.486779    7.772123
  C      6.124627   10.092750    8.848425
  H      6.353929   10.232628    9.893610
  C     -3.160856    4.584460    5.950549
  H     -4.156331    4.220220    5.713364
  H     -3.190322    5.175341    6.867837
  H     -2.476725    3.742610    6.071539
  C      8.187201   11.208129    7.868155
  H      8.979599   10.644071    7.370802
  H      8.475426   11.359087    8.908097
  H      8.130134   12.185623    7.383397

ORBITAL ENERGIES
----------------

  NO   OCC          E(Eh)            E(eV)
   0   2.0000     -88.960740     -2420.7448
   1   2.0000     -24.781056      -674.3268
   2   2.0000     -19.246373      -523.7204
   3   2.0000     -19.186550      -522.0926
   4   2.0000     -10.354780      -281.7679
   5   2.0000     -10.346621      -281.5459
   6   2.0000     -10.332694      -281.1669
   7   2.0000     -10.295894      -280.1655
   8   2.0000     -10.287703      -279.9426
   9   2.0000     -10.279295      -279.7138
  10   2.0000     -10.277085      -279.6537
  11   2.0000     -10.267047      -279.3805
  12   2.0000     -10.266544      -279.3669
  13   2.0000     -10.262908      -279.2679
  14   2.0000     -10.260276      -279.1963
  15   2.0000     -10.258613      -279.1511
  16   2.0000     -10.253552      -279.0133
  17   2.0000     -10.251710      -278.9632
  18   2.0000     -10.239941      -278.6429
  19   2.0000      -8.038098      -218.7278
  20   2.0000      -6.001781      -163.3168
  21   2.0000      -5.997615      -163.2034
  22   2.0000      -5.995160      -163.1366
  23   2.0000      -1.321831       -35.9689
  24   2.0000      -1.165235       -31.7077
  25   2.0000      -1.122861       -30.5546
  26   2.0000      -0.979314       -26.6485
  27   2.0000      -0.961870       -26.1738
  28   2.0000      -0.898112       -24.4389
  29   2.0000      -0.865388       -23.5484
  30   2.0000      -0.851006       -23.1571
  31   2.0000      -0.847252       -23.0549
  32   2.0000      -0.821703       -22.3597
  33   2.0000      -0.795555       -21.6482
  34   2.0000      -0.761334       -20.7170
  35   2.0000      -0.731553       -19.9066
  36   2.0000      -0.712973       -19.4010
  37   2.0000      -0.691437       -18.8150
  38   2.0000      -0.656536       -17.8652
  39   2.0000      -0.632489       -17.2109
  40   2.0000      -0.625066       -17.0089
  41   2.0000      -0.609752       -16.5922
  42   2.0000      -0.594111       -16.1666
  43   2.0000      -0.586655       -15.9637
  44   2.0000      -0.575188       -15.6517
  45   2.0000      -0.562666       -15.3109
  46   2.0000      -0.547725       -14.9043
  47   2.0000      -0.546945       -14.8831
  48   2.0000      -0.529169       -14.3994
  49   2.0000      -0.519381       -14.1331
  50   2.0000      -0.512476       -13.9452
  51   2.0000      -0.500252       -13.6125
  52   2.0000      -0.497170       -13.5287
  53   2.0000      -0.492259       -13.3951
  54   2.0000      -0.488395       -13.2899
  55   2.0000      -0.478047       -13.0083
  56   2.0000      -0.462924       -12.5968
  57   2.0000      -0.459413       -12.5013
  58   2.0000      -0.455897       -12.4056
  59   2.0000      -0.448810       -12.2127
  60   2.0000      -0.438733       -11.9385
  61   2.0000      -0.435276       -11.8445
  62   2.0000      -0.431952       -11.7540
  63   2.0000      -0.415215       -11.2986
  64   2.0000      -0.404337       -11.0026
  65   2.0000      -0.396880       -10.7997
  66   2.0000      -0.369314       -10.0496
  67   2.0000      -0.336568        -9.1585
  68   2.0000      -0.323817        -8.8115
  69   2.0000      -0.310996        -8.4626
  70   2.0000      -0.296299        -8.0627
  71   2.0000      -0.276080        -7.5125
  72   0.0000      -0.052960        -1.4411
  73   0.0000       0.012140         0.3304
  74   0.0000       0.024596         0.6693
  75   0.0000       0.063805         1.7362
  76   0.0000       0.065741         1.7889

Total SCF time: 0 days 0 hours 3 min 28 sec

-----------------------------------------------------------------------------
         ABSORPTION SPECTRUM VIA TRANSITION ELECTRIC DIPOLE MOMENTS
-----------------------------------------------------------------------------
State   Energy    Wavelength  fosc         T2        TX        TY        TZ
        (cm-1)      (nm)                 (au**2)    (au)      (au)      (au)
-----------------------------------------------------------------------------
   1   28801.4    347.2   0.940340393  10.74848  -2.51663  -1.38579  -1.57945
   2   30668.8    326.1   0.003031052   0.03254   0.05808   0.03004  -0.16811
   3   35542.7    281.4   0.319412021   2.95853  -1.38249  -0.80568   0.63098
   4   36941.8    270.7   0.072119227   0.64270  -0.70767  -0.35668  -0.12115
   5   39352.4    254.1   0.015029411   0.12573   0.33175   0.11365   0.05252
   6   44208.4    226.2   0.028920732   0.21537  -0.31899  -0.22664   0.24949
   7   45403.3    220.2   0.112838892   0.81818  -0.42378   0.21821  -0.76875
   8   47646.2    209.9   0.000350126   0.00242  -0.04646   0.00045  -0.01614
   9   48601.8    205.8   0.031587738   0.21396  -0.17382  -0.22944   0.36208
  10   48966.7    204.2   0.036598560   0.24606   0.43505   0.19863   0.13165
  11   51099.1    195.7   0.000762540   0.00491   0.05923   0.03691  -0.00651
  12   51640.3    193.6   0.002573581   0.01641   0.01771   0.12664  -0.00745
  13   51850.2    192.9   0.029123272   0.18491  -0.38255  -0.19097   0.04579
  14   52788.5    189.4   0.022220963   0.13858  -0.33714  -0.15556  -0.02675
  15   52991.7    188.7   0.028727571   0.17847   0.34946   0.02464   0.23609
  16   54040.3    185.0   0.796737284   4.85370  -1.79525  -1.16055   0.53283
  17   55182.0    181.2   0.311576269   1.85884  -1.11988  -0.12536  -0.76745
  18   55698.1    179.5   0.100696348   0.59518   0.32908   0.43861  -0.54269
  19   56489.8    177.0   0.019027303   0.11089   0.01740  -0.13213   0.30517
  20   57039.3    175.3   0.026019533   0.15018  -0.36657  -0.11721  -0.04545
  21   57705.1    173.3   0.006090410   0.03475  -0.12942  -0.13408   0.00428
  22   58686.4    170.4   0.171950044   0.96458   0.78792   0.44428  -0.38259
  23   59173.0    169.0   0.027216097   0.15142   0.29899   0.17354  -0.17863
  24   59968.9    166.8   0.005697758   0.03128   0.15175   0.09063  -0.00599
  25   60375.4    165.6   0.000955786   0.00521   0.02967  -0.03192  -0.05755
  26   61041.2    163.8   0.006577370   0.03547  -0.17009   0.00297   0.08083
  27   61223.2    163.3   0.013474013   0.07245  -0.22498  -0.04731  -0.13999
  28   61265.7    163.2   0.080002478   0.42989   0.37100   0.29375   0.45383
  29   62022.4    161.2   0.037295062   0.19796  -0.27310  -0.27541   0.21801
  30   62069.0    161.1   0.016309066   0.08650   0.18956   0.12849  -0.18455
  31   62946.0    158.9   0.030169360   0.15779   0.15565  -0.32845  -0.16026
  32   63223.8    158.2   0.000074909   0.00039  -0.00058  -0.00278   0.01954
  33   63451.7    157.6   0.009192874   0.04770   0.15474   0.06734  -0.13862
  34   63848.7    156.6   0.001526949   0.00787  -0.03606   0.07107   0.03901
  35   64000.4    156.2   0.002771166   0.01425   0.05875   0.10357  -0.00875
  36   65215.0    153.3   0.004386585   0.02214   0.04916   0.12537  -0.06333
  37   65574.3    152.5   0.005575671   0.02799  -0.03511   0.09204  -0.13524
  38   65749.7    152.1   0.010277054   0.05146  -0.16656   0.01273   0.15348
  39   65884.2    151.8   0.043598985   0.21786  -0.24321  -0.16914   0.36069
  40   66034.3    151.4   0.004803297   0.02395   0.12963  -0.05108  -0.06734
  41   66469.4    150.4   0.004413688   0.02186   0.05778   0.09661  -0.09585
  42   66662.1    150.0   0.005806915   0.02868   0.14433  -0.00070  -0.08857
  43   66744.3    149.8   0.004623515   0.02281   0.09457   0.04149  -0.11018
  44   67231.3    148.7   0.002374695   0.01163   0.07446  -0.04991  -0.05993
  45   67327.9    148.5   0.014786027   0.07230  -0.22445   0.14350   0.03648
  46   67561.6    148.0   0.017895581   0.08720  -0.13384  -0.23355   0.12141
  47   67844.6    147.4   0.001918255   0.00931  -0.08419  -0.00459   0.04690
  48   68158.9    146.7   0.010844246   0.05238  -0.02006  -0.22532   0.03472
  49   68388.5    146.2   0.021781692   0.10485   0.27601   0.03839  -0.16492
  50   68418.8    146.2   0.004814344   0.02317   0.02872  -0.11457   0.09599
  51   68568.7    145.8   0.100251727   0.48133  -0.09364   0.26026  -0.63626
  52   69277.0    144.3   0.018026896   0.08567   0.00971  -0.04897   0.28840
  53   69675.7    143.5   0.029687721   0.14027  -0.36249  -0.04652  -0.08189
  54   69904.3    143.1   0.004868033   0.02293   0.04412   0.10190   0.10294
  55   70265.4    142.3   0.005815352   0.02725   0.06515   0.12276  -0.08907
  56   70607.0    141.6   0.007536306   0.03514   0.13513   0.02139  -0.12815
  57   70722.4    141.4   0.056152557   0.26139   0.35727   0.17270   0.32236
  58   70808.4    141.2   0.040949913   0.19039   0.39622   0.14797   0.10727
  59   71375.9    140.1   0.008148024   0.03758   0.00522   0.18591  -0.05470
  60   71448.0    140.0   0.005029489   0.02317  -0.00368  -0.00873  -0.15194
  61   71547.4    139.8   0.002027384   0.00933  -0.07496  -0.05821  -0.01789
  62   71797.2    139.3   0.015740048   0.07217   0.10167   0.03592  -0.24606
  63   71824.9    139.2   0.039756933   0.18223  -0.14074   0.12461  -0.38327
  64   72208.4    138.5   0.005176092   0.02360   0.00446   0.13675   0.06984
  65   72551.7    137.8   0.039469583   0.17910   0.17603   0.14662   0.35583
  66   72919.1    137.1   0.004584152   0.02070  -0.06173   0.02440  -0.12763
  67   73054.8    136.9   0.003896676   0.01756  -0.02305   0.07387  -0.10757
  68   73274.3    136.5   0.005346527   0.02402  -0.13716  -0.06701   0.02680
  69   73463.8    136.1   0.013853674   0.06208   0.10257  -0.22707   0.00166
  70   73543.0    136.0   0.003077218   0.01378   0.04477  -0.00690  -0.10827
  71   73685.3    135.7   0.005997786   0.02680  -0.03034   0.02443  -0.15899
  72   73828.0    135.4   0.017496726   0.07802  -0.08503   0.01212  -0.26579
  73   74067.1    135.0   0.048208094   0.21427  -0.22066  -0.30771  -0.26627
  74   74191.7    134.8   0.053653622   0.23808   0.39451   0.09218   0.27193
  75   74619.5    134.0   0.153277312   0.67624   0.30111   0.16706   0.74677
  76   74847.7    133.6   0.017013793   0.07483  -0.07509  -0.03349  -0.26091
  77   74905.3    133.5   0.013739805   0.06039  -0.10237  -0.03569   0.22053
  78   74933.9    133.5   0.022074604   0.09698   0.04448   0.07308   0.29944
  79   75215.9    133.0   0.005840715   0.02556   0.03495   0.12045  -0.09917
  80   75612.3    132.3   0.001831192   0.00797  -0.02760  -0.08335  -0.01623
  81   75686.1    132.1   0.002438028   0.01060   0.05997   0.07954  -0.02613
  82   75756.4    132.0   0.026598157   0.11559   0.22065   0.20221  -0.16129
  83   76139.7    131.3   0.007631294   0.03300  -0.13479  -0.09734  -0.07317
  84   76259.7    131.1   0.027960234   0.12070   0.13823   0.11419   0.29758
  85   76498.9    130.7   0.010475821   0.04508  -0.19779   0.06891   0.03482
  86   76826.9    130.2   0.000893889   0.00383  -0.03984   0.04633   0.00985
  87   77057.4    129.8   0.001274075   0.00544   0.02540  -0.04766   0.05026
  88   77241.7    129.5   0.003064758   0.01306  -0.02192   0.05202   0.09938
  89   77377.8    129.2   0.005426468   0.02309   0.12266  -0.02466  -0.08623
  90   77534.2    129.0   0.003629555   0.01541   0.00306  -0.06624   0.10495
  91   78004.5    128.2   0.001211827   0.00511  -0.00172   0.05937   0.03983
  92   78349.7    127.6   0.010230238   0.04299   0.00361  -0.20729   0.00211
  93   78459.0    127.5   0.131189603   0.55047   0.31326   0.14526  -0.65668
  94   78729.6    127.0   0.006155819   0.02574   0.02640  -0.10574  -0.11774
  95   78855.0    126.8   0.036721154   0.15331   0.09400   0.01775  -0.37968
  96   79006.9    126.6   0.011998959   0.05000   0.03758   0.04371  -0.21604
  97   79267.2    126.2   0.008966346   0.03724  -0.08838   0.15758  -0.06780
  98   79383.1    126.0   0.002899659   0.01203   0.03023   0.07560  -0.07346
  99   79468.1    125.8   0.075713813   0.31366  -0.14713  -0.06001   0.53704
 100   79556.5    125.7   0.020198623   0.08358  -0.13158   0.00157   0.25743
 101   79634.2    125.6   0.007342730   0.03036   0.13390   0.04289   0.10289
 102   79787.9    125.3   0.006026774   0.02487   0.00475   0.08838   0.13051
 103   79841.2    125.2   0.015290881   0.06305  -0.03249   0.21101  -0.13216
 104   80030.6    125.0   0.005085279   0.02092  -0.02209  -0.14290   0.00339
 105   80140.8    124.8   0.000995133   0.00409   0.05043  -0.02982  -0.02560
 106   80291.1    124.5   0.001482409   0.00608   0.03398  -0.02862  -0.06406
 107   80430.7    124.3   0.004111921   0.01683  -0.00789  -0.10252   0.07911
 108   80521.3    124.2   0.020748407   0.08483   0.06828  -0.16910   0.22710
 109   80554.4    124.1   0.003485237   0.01424  -0.04593   0.07272  -0.08274
 110   80563.4    124.1   0.001792867   0.00733   0.06583   0.05459   0.00352
 111   80766.6    123.8   0.001737815   0.00708   0.00124  -0.07837  -0.03066
 112   81065.7    123.4   0.001739310   0.00706  -0.02286  -0.00120   0.08087
 113   81555.7    122.6   0.000219430   0.00089   0.00132   0.02508   0.01597
 114   81835.5    122.2   0.013760134   0.05535   0.21314   0.00909  -0.09921
 115   81965.5    122.0   0.049051207   0.19701   0.43320   0.09648  -0.00620
 116   82107.5    121.8   0.008630597   0.03460   0.16472   0.07862  -0.03593
 117   82283.8    121.5   0.000959135   0.00384  -0.03401  -0.00865   0.05105
 118   82403.1    121.4   0.015309323   0.06116  -0.17550  -0.16388   0.05921
 119   82498.5    121.2   0.000858387   0.00343   0.03628   0.02895   0.03565
 120   82725.3    120.9   0.010418885   0.04146   0.06781   0.16186  -0.10328
 121   82920.8    120.6   0.006151970   0.02442  -0.11627  -0.08177   0.06496
 122   82933.1    120.6   0.017440787   0.06923  -0.04937  -0.25839  -0.00562
 123   83118.2    120.3   0.005961826   0.02361   0.06056  -0.09539   0.10415
 124   83190.5    120.2   0.002362625   0.00935  -0.06238  -0.05500  -0.04933
 125   83313.8    120.0   0.008115287   0.03207  -0.13977   0.06058   0.09414
 126   83445.2    119.8   0.021543992   0.08500   0.13751   0.23494   0.10436
 127   83540.9    119.7   0.040371999   0.15909   0.26330   0.12803  -0.27088
 128   83607.9    119.6   0.002827288   0.01113  -0.00377  -0.03309  -0.10012
 129   83789.7    119.3   0.006598864   0.02593   0.14134  -0.06408   0.04293
 130   83920.5    119.2   0.017537188   0.06880   0.01478  -0.18916   0.18110
 131   84052.9    119.0   0.011925291   0.04671  -0.17440   0.02088  -0.12592
 132   84197.6    118.8   0.016187865   0.06329  -0.01624   0.09157   0.23376
 133   84218.3    118.7   0.006899782   0.02697   0.04777   0.15421  -0.03013
 134   84342.8    118.6   0.018359374   0.07166  -0.10791  -0.03671   0.24222
 135   84533.3    118.3   0.009534694   0.03713  -0.05712   0.02498   0.18234
 136   84731.2    118.0   0.005135455   0.01995   0.09831  -0.10143  -0.00070
 137   84774.9    118.0   0.005028089   0.01953  -0.06057  -0.08877  -0.08932
 138   84982.2    117.7   0.007688940   0.02979   0.12266   0.02540   0.11873
 139   85051.8    117.6   0.003008331   0.01164   0.02953  -0.07327  -0.07351
 140   85171.1    117.4   0.006742776   0.02606   0.10754   0.00238  -0.12039
 141   85360.9    117.1   0.006622446   0.02554  -0.14259  -0.07003  -0.01747
 142   85504.7    117.0   0.002928708   0.01128  -0.09514  -0.04333   0.01861
 143   85618.2    116.8   0.014282630   0.05492   0.18899   0.01642  -0.13759
 144   85650.3    116.8   0.053592368   0.20599   0.17961   0.10799  -0.40258
 145   85678.7    116.7   0.184502132   0.70893   0.59850   0.48600  -0.33843
 146   85826.1    116.5   0.032177625   0.12343   0.16690  -0.07399   0.30016
 147   85899.9    116.4   0.045193343   0.17320   0.34007   0.13128  -0.20081
 148   85996.9    116.3   0.016808866   0.06435  -0.25233   0.00663   0.02516
 149   86158.1    116.1   0.036014889   0.13761  -0.03739  -0.03777   0.36714
 150   86203.4    116.0   0.050828822   0.19412   0.33442   0.08829  -0.27291

FINAL SINGLE POINT ENERGY     -1227.678650225017

DIPOLE MOMENT
-------------
                                X             Y             Z
Electronic contribution:     -3.68265      -3.53214       0.05761
Nuclear contribution   :      3.37892       3.31606       1.77557
                        -----------------------------------------
Total Dipole Moment    :     -0.30373      -0.21608       1.83318
                        -----------------------------------------
Magnitude (a.u.)       :      1.87069
Magnitude (Debye)      :      4.75492

Rotational constants in cm-1:     0.035604     0.003976     0.003622
Rotational constants in MHz :  1067.394451   119.186470   108.598124

                             ****ORCA TERMINATED NORMALLY****
TOTAL RUN TIME: 0 days 0 hours 42 minutes 1 seconds 675 msec
