                         Program Version 5.0.4 -  RELEASE  -
|  1> ! cam-B3LYP D3 def2-TZVP(-f) def2/J RIJCOSX tightSCF miniprint nopop
|  2> %maxcore  1000
|  3> %pal nprocs   8 end
|  4>  %TDDFT NROOTS 150
|  5> end
|  6> ! CPCM(DMF)
|  7> * xyz   0   1
|  8> S      4.66848600    9.29091900    8.39496900
|  9> F      1.41094400    6.31119300    6.87491600
| 10> O      2.65407200    8.24011000    3.43250600
| 11> O     -2.77044700    5.39748500    4.83533100
| 12> C      0.56631800    6.50071300    5.82950700
| 13> C     -0.65053100    5.84982300    5.91598000
| 14> H     -0.85929000    5.25437100    6.79137100
| 15> C     -1.55388300    5.97874300    4.86171800
| 16> C     -1.20588300    6.74824700    3.74158500
| 17> H     -1.91417800    6.84465500    2.92976700
| 18> C      0.02299800    7.36313300    3.69044600
| 19> H      0.29751100    7.94896200    2.82430400
| 20> C      0.95779600    7.27386900    4.73869400
| 21> C      2.26152300    7.97530900    4.57212300
| 22> C      3.01785000    8.38106800    5.76054500
| 23> H      2.58874500    8.19158500    6.73306800
| 24> C      4.20991900    8.99924600    5.64041400
| 25> H      4.59626600    9.16797000    4.63995800
| 26> C      5.04818900    9.47203400    6.69941300
| 27> C      6.25224700   10.12533000    6.54875000
| 28> H      6.67148800   10.33803000    5.57383200
| 29> C      6.87618500   10.48677900    7.77212300
| 30> C      6.12462700   10.09274800    8.84842500
| 31> H      6.35392900   10.23262600    9.89361000
| 32> C     -3.16085600    4.58446100    5.95055000
| 33> H     -4.15633200    4.22022200    5.71336400
| 34> H     -3.19032200    5.17534200    6.86783800
| 35> H     -2.47672600    3.74261100    6.07153900
| 36> C      8.18720000   11.20813000    7.86815500
| 37> H      8.97959800   10.64407400    7.37080100
| 38> H      8.47542600   11.35908700    8.90809800
| 39> H      8.13013100   12.18562500    7.38339900
| 40>  *
| 41>
| 42>                          ****END OF INPUT****

CARTESIAN COORDINATES (ANGSTROEM)
---------------------------------
  S      4.668486    9.290919    8.394969
  F      1.410944    6.311193    6.874916
  O      2.654072    8.240110    3.432506
  O     -2.770447    5.397485    4.835331
  C      0.566318    6.500713    5.829507
  C     -0.650531    5.849823    5.915980
  H     -0.859290    5.254371    6.791371
  C     -1.553883    5.978743    4.861718
  C     -1.205883    6.748247    3.741585
  H     -1.914178    6.844655    2.929767
  C      0.022998    7.363133    3.690446
  H      0.297511    7.948962    2.824304
  C      0.957796    7.273869    4.738694
  C      2.261523    7.975309    4.572123
  C      3.017850    8.381068    5.760545
  H      2.588745    8.191585    6.733068
  C      4.209919    8.999246    5.640414
  H      4.596266    9.167970    4.639958
  C      5.048189    9.472034    6.699413
  C      6.252247   10.125330    6.548750
  H      6.671488   10.338030    5.573832
  C      6.876185   10.486779    7.772123
  C      6.124627   10.092748    8.848425
  H      6.353929   10.232626    9.893610
  C     -3.160856    4.584461    5.950550
  H     -4.156332    4.220222    5.713364
  H     -3.190322    5.175342    6.867838
  H     -2.476726    3.742611    6.071539
  C      8.187200   11.208130    7.868155
  H      8.979598   10.644074    7.370801
  H      8.475426   11.359087    8.908098
  H      8.130131   12.185625    7.383399

ORBITAL ENERGIES
----------------

  NO   OCC          E(Eh)            E(eV)
   0   2.0000     -88.960740     -2420.7448
   1   2.0000     -24.781056      -674.3268
   2   2.0000     -19.246373      -523.7204
   3   2.0000     -19.186550      -522.0926
   4   2.0000     -10.354780      -281.7679
   5   2.0000     -10.346621      -281.5459
   6   2.0000     -10.332694      -281.1669
   7   2.0000     -10.295894      -280.1655
   8   2.0000     -10.287703      -279.9426
   9   2.0000     -10.279295      -279.7138
  10   2.0000     -10.277085      -279.6537
  11   2.0000     -10.267046      -279.3805
  12   2.0000     -10.266544      -279.3669
  13   2.0000     -10.262908      -279.2679
  14   2.0000     -10.260276      -279.1963
  15   2.0000     -10.258613      -279.1510
  16   2.0000     -10.253552      -279.0133
  17   2.0000     -10.251710      -278.9632
  18   2.0000     -10.239941      -278.6430
  19   2.0000      -8.038098      -218.7278
  20   2.0000      -6.001781      -163.3168
  21   2.0000      -5.997615      -163.2034
  22   2.0000      -5.995160      -163.1366
  23   2.0000      -1.321831       -35.9689
  24   2.0000      -1.165235       -31.7077
  25   2.0000      -1.122861       -30.5546
  26   2.0000      -0.979314       -26.6485
  27   2.0000      -0.961870       -26.1738
  28   2.0000      -0.898112       -24.4389
  29   2.0000      -0.865388       -23.5484
  30   2.0000      -0.851006       -23.1571
  31   2.0000      -0.847252       -23.0549
  32   2.0000      -0.821703       -22.3597
  33   2.0000      -0.795555       -21.6482
  34   2.0000      -0.761334       -20.7170
  35   2.0000      -0.731553       -19.9066
  36   2.0000      -0.712973       -19.4010
  37   2.0000      -0.691437       -18.8150
  38   2.0000      -0.656536       -17.8652
  39   2.0000      -0.632489       -17.2109
  40   2.0000      -0.625066       -17.0089
  41   2.0000      -0.609752       -16.5922
  42   2.0000      -0.594111       -16.1666
  43   2.0000      -0.586655       -15.9637
  44   2.0000      -0.575188       -15.6517
  45   2.0000      -0.562666       -15.3109
  46   2.0000      -0.547725       -14.9043
  47   2.0000      -0.546945       -14.8831
  48   2.0000      -0.529169       -14.3994
  49   2.0000      -0.519381       -14.1331
  50   2.0000      -0.512476       -13.9452
  51   2.0000      -0.500252       -13.6125
  52   2.0000      -0.497170       -13.5287
  53   2.0000      -0.492259       -13.3951
  54   2.0000      -0.488395       -13.2899
  55   2.0000      -0.478047       -13.0083
  56   2.0000      -0.462924       -12.5968
  57   2.0000      -0.459413       -12.5013
  58   2.0000      -0.455898       -12.4056
  59   2.0000      -0.448810       -12.2127
  60   2.0000      -0.438732       -11.9385
  61   2.0000      -0.435276       -11.8445
  62   2.0000      -0.431952       -11.7540
  63   2.0000      -0.415216       -11.2986
  64   2.0000      -0.404337       -11.0026
  65   2.0000      -0.396880       -10.7997
  66   2.0000      -0.369315       -10.0496
  67   2.0000      -0.336568        -9.1585
  68   2.0000      -0.323817        -8.8115
  69   2.0000      -0.310996        -8.4626
  70   2.0000      -0.296299        -8.0627
  71   2.0000      -0.276080        -7.5125
  72   0.0000      -0.052960        -1.4411
  73   0.0000       0.012140         0.3304
  74   0.0000       0.024596         0.6693
  75   0.0000       0.063805         1.7362
  76   0.0000       0.065741         1.7889

Total SCF time: 0 days 0 hours 3 min 29 sec

-----------------------------------------------------------------------------
         ABSORPTION SPECTRUM VIA TRANSITION ELECTRIC DIPOLE MOMENTS
-----------------------------------------------------------------------------
State   Energy    Wavelength  fosc         T2        TX        TY        TZ
        (cm-1)      (nm)                 (au**2)    (au)      (au)      (au)
-----------------------------------------------------------------------------
   1   29997.2    333.4   1.089711269  11.95931  -2.66806  -1.46770  -1.63910
   2   30897.3    323.7   0.031772526   0.33854   0.36233   0.20232   0.40783
   3   36559.7    273.5   0.328579258   2.95878  -1.33164  -0.77134   0.76847
   4   38096.2    262.5   0.100509357   0.86856   0.79506   0.39810   0.27920
   5   39793.7    251.3   0.013672760   0.11311  -0.31705  -0.10946   0.02476
   6   45578.2    219.4   0.027616020   0.19947   0.23704   0.16663  -0.33988
   7   46458.2    215.2   0.103054293   0.73026   0.37862  -0.22346   0.73278
   8   47801.1    209.2   0.000320522   0.00221   0.04471  -0.00983   0.01059
   9   49707.8    201.2   0.070859006   0.46930  -0.47688  -0.37321   0.32029
  10   50246.2    199.0   0.045620465   0.29890   0.42933   0.15190   0.30250
  11   51243.0    195.1   0.000145626   0.00094  -0.02763  -0.01106   0.00706
  12   51800.8    193.0   0.002265254   0.01440  -0.02325   0.11770  -0.00189
  13   52317.8    191.1   0.025508626   0.16051   0.34763   0.19125  -0.05557
  14   52824.7    189.3   0.005645171   0.03518  -0.16374  -0.09011   0.01580
  15   53189.7    188.0   0.012086148   0.07481  -0.14860   0.07263  -0.21783
  16   55942.4    178.8   0.803081941   4.72600  -1.81118  -1.12032   0.43646
  17   56343.5    177.5   0.242668347   1.41790   1.04824   0.23663   0.51292
  18   57001.5    175.4   0.066979816   0.38684  -0.17082   0.18403  -0.56903
  19   57153.6    175.0   0.218360688   1.25779   0.00594   0.52009  -0.99361
  20   57604.2    173.6   0.070164810   0.40100   0.58160   0.05335   0.24472
  21   58606.0    170.6   0.199254947   1.11929  -0.95633  -0.45045  -0.04264
  22   59170.5    169.0   0.009961341   0.05542  -0.19572  -0.11439   0.06351
  23   60033.5    166.6   0.299833339   1.64423   1.03190   0.58782  -0.48362
  24   60114.7    166.3   0.000790342   0.00433  -0.04666  -0.03978  -0.02386
  25   60530.9    165.2   0.001629084   0.00886  -0.02506   0.03247   0.08472
  26   61145.1    163.5   0.008295053   0.04466  -0.16340  -0.01376   0.13332
  27   61288.8    163.2   0.004130108   0.02218   0.10693  -0.07568  -0.07088
  28   62070.1    161.1   0.168044357   0.89129  -0.73596  -0.48971  -0.33142
  29   62173.4    160.8   0.002618765   0.01387   0.06904   0.09219   0.02453
  30   62676.9    159.5   0.111219003   0.58418   0.51092   0.42897  -0.37299
  31   62981.9    158.8   0.032056907   0.16756   0.21691  -0.29411  -0.18442
  32   63227.8    158.2   0.000509242   0.00265   0.02749   0.01628  -0.04039
  33   63881.0    156.5   0.005027099   0.02591   0.10432   0.08898  -0.08430
  34   63950.5    156.4   0.002622281   0.01350  -0.05434   0.07926   0.06530
  35   64324.8    155.5   0.007052058   0.03609  -0.14943  -0.10415   0.05400
  36   65392.4    152.9   0.001428630   0.00719   0.00974  -0.08370   0.00959
  37   65667.6    152.3   0.006607880   0.03313  -0.04502   0.11116  -0.13691
  38   65893.3    151.8   0.008376904   0.04185  -0.16536   0.02334   0.11817
  39   66098.0    151.3   0.021002165   0.10460  -0.13220  -0.19162   0.22452
  40   66143.6    151.2   0.049628227   0.24701  -0.35108  -0.12551   0.32863
  41   66613.3    150.1   0.004785564   0.02365  -0.03238  -0.12842   0.07818
  42   66742.0    149.8   0.003190196   0.01574  -0.11337   0.01143   0.05246
  43   67316.4    148.6   0.003641719   0.01781  -0.11804  -0.00084   0.06225
  44   67430.2    148.3   0.013635455   0.06657   0.18133  -0.18343   0.00683
  45   67514.1    148.1   0.045296714   0.22088   0.34521   0.11614  -0.29701
  46   67953.0    147.2   0.002802168   0.01358   0.06911   0.09292  -0.01286
  47   68152.4    146.7   0.006930136   0.03348  -0.16619   0.06693   0.03711
  48   68312.8    146.4   0.018316857   0.08827   0.15154   0.24115   0.08459
  49   68448.3    146.1   0.005142909   0.02474   0.13682  -0.06603   0.04071
  50   68717.6    145.5   0.054174447   0.25954  -0.43554  -0.19435   0.17909
  51   69107.0    144.7   0.183019426   0.87187  -0.03942   0.41926  -0.83339
  52   69519.1    143.8   0.015366725   0.07277  -0.07211   0.06777  -0.25095
  53   69780.1    143.3   0.025637035   0.12095   0.32581   0.01696   0.12045
  54   69981.8    142.9   0.004476747   0.02106  -0.02119  -0.09833  -0.10461
  55   70673.7    141.5   0.002213121   0.01031  -0.08997   0.03650  -0.02972
  56   70836.2    141.2   0.046446744   0.21586  -0.28775  -0.12466  -0.34281
  57   70916.2    141.0   0.048314836   0.22429  -0.40648  -0.12088  -0.21084
  58   70968.0    140.9   0.005362878   0.02488  -0.11200   0.00779   0.11078
  59   71476.2    139.9   0.008079583   0.03721  -0.05463  -0.17397  -0.06297
  60   71582.7    139.7   0.001674840   0.00770  -0.06326  -0.06034   0.00774
  61   71655.1    139.6   0.008557485   0.03932   0.03024   0.08259  -0.17771
  62   71916.2    139.1   0.010680507   0.04889  -0.21304   0.05826  -0.01065
  63   72248.0    138.4   0.020920719   0.09533  -0.01178  -0.21478   0.22150
  64   72467.4    138.0   0.009105394   0.04136  -0.09724  -0.02276  -0.17718
  65   72687.3    137.6   0.069351867   0.31411   0.24235   0.11949   0.49101
  66   73010.6    137.0   0.005305961   0.02393   0.00429  -0.06868   0.13853
  67   73108.7    136.8   0.016474633   0.07419   0.07708  -0.08529   0.24692
  68   73379.3    136.3   0.001528065   0.00686  -0.07742  -0.01569   0.02482
  69   73510.3    136.0   0.014932095   0.06687   0.12711  -0.22307   0.03090
  70   73609.5    135.9   0.004336907   0.01940   0.01771  -0.01429  -0.13740
  71   73823.8    135.5   0.001668736   0.00744  -0.01158  -0.03570   0.07767
  72   74129.1    134.9   0.013191230   0.05858  -0.00823   0.23740   0.04642
  73   74220.5    134.7   0.012051038   0.05345   0.14603   0.04502   0.17350
  74   74614.8    134.0   0.041030905   0.18103   0.35174   0.21654  -0.10210
  75   74880.7    133.5   0.014060966   0.06182  -0.21680  -0.11983  -0.02139
  76   74944.8    133.4   0.007971058   0.03501   0.17454   0.06436  -0.02023
  77   74961.1    133.4   0.007808876   0.03429   0.09395   0.02635   0.15740
  78   75262.6    132.9   0.026017196   0.11380  -0.17438  -0.21601  -0.19167
  79   75538.7    132.4   0.172116663   0.75012  -0.38036  -0.17743  -0.75760
  80   75708.0    132.1   0.022202780   0.09655   0.15877   0.16081   0.21326
  81   75809.6    131.9   0.000202545   0.00088  -0.02323   0.00038  -0.01844
  82   76001.3    131.6   0.082576315   0.35769  -0.03038  -0.13012   0.58296
  83   76249.4    131.1   0.008852454   0.03822  -0.06588  -0.08965   0.16076
  84   76525.6    130.7   0.015453695   0.06648   0.08214  -0.13015  -0.20687
  85   76863.8    130.1   0.004556755   0.01952   0.12023  -0.01315   0.06991
  86   76990.3    129.9   0.034396652   0.14708  -0.23411  -0.12498  -0.27686
  87   77139.6    129.6   0.002157277   0.00921  -0.04190   0.03667  -0.07814
  88   77352.1    129.3   0.010289441   0.04379   0.03579  -0.08680  -0.18702
  89   77436.2    129.1   0.006269150   0.02665  -0.15116  -0.03155  -0.05298
  90   77647.6    128.8   0.004820319   0.02044   0.03158   0.10573  -0.09089
  91   78020.0    128.2   0.001037585   0.00438  -0.00742   0.03422   0.05615
  92   78435.9    127.5   0.009314056   0.03909  -0.04382   0.18884   0.03888
  93   78736.5    127.0   0.079954593   0.33431   0.26525   0.10009  -0.50391
  94   78788.0    126.9   0.005707775   0.02385   0.02805   0.15186   0.00088
  95   78967.0    126.6   0.054920610   0.22896   0.10939  -0.01546  -0.46557
  96   79116.4    126.4   0.035812673   0.14902   0.12886   0.08339  -0.35421
  97   79401.0    125.9   0.012169409   0.05046  -0.04420   0.17179  -0.13781
  98   79534.8    125.7   0.001975662   0.00818   0.08265   0.03332   0.01539
  99   79628.2    125.6   0.001854276   0.00767  -0.06096   0.06010   0.01838
 100   79732.0    125.4   0.090708464   0.37453   0.28421   0.08978  -0.53451
 101   79771.5    125.4   0.067257559   0.27757   0.00039  -0.11443   0.51427
 102   79906.8    125.1   0.032121929   0.13234  -0.06347   0.17226   0.31407
 103   79950.3    125.1   0.051804430   0.21332  -0.08405  -0.11690   0.43885
 104   80122.9    124.8   0.004137622   0.01700   0.00873   0.12203   0.04510
 105   80209.1    124.7   0.002475158   0.01016  -0.05697   0.07447  -0.03698
 106   80330.6    124.5   0.002215504   0.00908  -0.04742   0.04498   0.06934
 107   80486.8    124.2   0.001207888   0.00494   0.00705   0.06039  -0.03527
 108   80601.9    124.1   0.002602299   0.01063  -0.01298  -0.04085   0.09376
 109   80802.7    123.8   0.009932324   0.04047  -0.02536  -0.03428   0.19659
 110   80899.9    123.6   0.006061223   0.02467  -0.01548   0.15017  -0.04330
 111   81039.2    123.4   0.009066067   0.03683  -0.09880   0.09419  -0.13490
 112   81190.5    123.2   0.022465561   0.09109   0.05900  -0.11878   0.27112
 113   81637.3    122.5   0.000634112   0.00256   0.01522   0.01740   0.04498
 114   81874.4    122.1   0.017282082   0.06949   0.24562   0.01822  -0.09397
 115   82115.6    121.8   0.008134510   0.03261  -0.17951  -0.00771  -0.01816
 116   82184.0    121.7   0.061641810   0.24692  -0.47875  -0.13237   0.01416
 117   82332.6    121.5   0.004388450   0.01755   0.10185   0.03569  -0.07681
 118   82500.3    121.2   0.029648527   0.11831   0.27026   0.19384  -0.08773
 119   82561.1    121.1   0.004108301   0.01638  -0.10685  -0.04682  -0.05266
 120   82786.6    120.8   0.013724056   0.05458  -0.10312  -0.17428   0.11649
 121   82984.5    120.5   0.017445588   0.06921   0.04214   0.25763   0.03257
 122   83041.3    120.4   0.009279364   0.03679   0.13676   0.11929  -0.06209
 123   83159.9    120.3   0.007694921   0.03046  -0.05339   0.12102  -0.11387
 124   83221.2    120.2   0.002037586   0.00806   0.05786   0.05415   0.04219
 125   83352.7    120.0   0.008172826   0.03228   0.15821  -0.03111  -0.07926
 126   83475.7    119.8   0.021109456   0.08325   0.04746   0.22163   0.17855
 127   83645.9    119.6   0.003336341   0.01313   0.05848   0.06873   0.07062
 128   83815.2    119.3   0.005106899   0.02006   0.07135  -0.07845   0.09388
 129   83869.3    119.2   0.008111447   0.03184   0.17638  -0.02699  -0.00009
 130   84074.4    118.9   0.031936753   0.12506   0.03096  -0.22814   0.26842
 131   84125.8    118.9   0.010471415   0.04098  -0.17753  -0.08235  -0.05178
 132   84286.8    118.6   0.022604150   0.08829  -0.02211   0.10716   0.27625
 133   84337.0    118.6   0.001051937   0.00411   0.00061   0.05517   0.03260
 134   84540.4    118.3   0.040621499   0.15819  -0.13643  -0.09169   0.36217
 135   84752.0    118.0   0.002943649   0.01143   0.09002  -0.05430  -0.01957
 136   84773.6    118.0   0.003766343   0.01463   0.03486  -0.11439   0.01805
 137   84973.5    117.7   0.013608697   0.05272  -0.13207  -0.02969  -0.18547
 138   85034.5    117.6   0.001196556   0.00463  -0.04161  -0.04605  -0.02795
 139   85093.0    117.5   0.003903861   0.01510   0.04311  -0.05984  -0.09831
 140   85216.1    117.3   0.008804909   0.03402  -0.07546   0.01092   0.16793
 141   85392.6    117.1   0.003801631   0.01466  -0.09330  -0.03748  -0.06743
 142   85590.2    116.8   0.001515385   0.00583  -0.00730  -0.01452   0.07460
 143   85661.0    116.7   0.002168740   0.00833   0.06958  -0.05594  -0.01906
 144   85763.8    116.6   0.045758247   0.17565  -0.15489  -0.03080   0.38821
 145   85851.4    116.5   0.135044148   0.51785   0.51563   0.45306  -0.21613
 146   85981.3    116.3   0.008801907   0.03370   0.15912   0.05943   0.06964
 147   86003.1    116.3   0.025855095   0.09897  -0.02331  -0.13938   0.28107
 148   86120.6    116.1   0.043007245   0.16440  -0.39246  -0.05641  -0.08483
 149   86228.1    116.0   0.012664279   0.04835  -0.18991   0.04404  -0.10171
 150   86315.8    115.9   0.009962599   0.03800  -0.02474  -0.01816  -0.19250

Dispersion correction           -0.031416104
FINAL SINGLE POINT ENERGY     -1227.704617827753

DIPOLE MOMENT
-------------
                                X             Y             Z
Electronic contribution:     -3.68266      -3.53216       0.05761
Nuclear contribution   :      3.37891       3.31608       1.77557
                        -----------------------------------------
Total Dipole Moment    :     -0.30374      -0.21609       1.83318
                        -----------------------------------------
Magnitude (a.u.)       :      1.87069
Magnitude (Debye)      :      4.75493

Rotational constants in cm-1:     0.035604     0.003976     0.003622
Rotational constants in MHz :  1067.393831   119.186486   108.598135

                             ****ORCA TERMINATED NORMALLY****
TOTAL RUN TIME: 0 days 0 hours 23 minutes 37 seconds 690 msec
