                         Program Version 5.0.4 -  RELEASE  -
|  1> ! cam-b3lyp def2-TZVP(-f) def2/J RIJCOSX tightSCF noautostart miniprint nopop
|  2> %maxcore  1000
|  3> %pal nprocs   8 end
|  4> ! CPCM(DMF)
|  5> %tddft
|  6> nroots 150
|  7> end
|  8> * xyz   0   1
|  9> S      4.66848500    9.29092100    8.39496900
| 10> F      1.41094300    6.31119500    6.87491600
| 11> O      2.65407100    8.24011100    3.43250700
| 12> O     -2.77044700    5.39748300    4.83533100
| 13> C      0.56631700    6.50071400    5.82950700
| 14> C     -0.65053100    5.84982300    5.91598000
| 15> H     -0.85929000    5.25437100    6.79137100
| 16> C     -1.55388300    5.97874300    4.86171700
| 17> C     -1.20588300    6.74824600    3.74158500
| 18> H     -1.91417800    6.84465400    2.92976700
| 19> C      0.02299800    7.36313400    3.69044600
| 20> H      0.29751000    7.94896300    2.82430500
| 21> C      0.95779600    7.27387000    4.73869500
| 22> C      2.26152200    7.97531100    4.57212400
| 23> C      3.01784900    8.38106900    5.76054500
| 24> H      2.58874300    8.19158700    6.73306900
| 25> C      4.20991900    8.99924700    5.64041400
| 26> H      4.59626600    9.16796900    4.63995800
| 27> C      5.04818800    9.47203400    6.69941400
| 28> C      6.25224800   10.12532900    6.54875000
| 29> H      6.67148800   10.33802900    5.57383200
| 30> C      6.87618600   10.48677900    7.77212300
| 31> C      6.12462700   10.09275000    8.84842500
| 32> H      6.35392900   10.23262800    9.89361000
| 33> C     -3.16085600    4.58446000    5.95054900
| 34> H     -4.15633100    4.22022000    5.71336400
| 35> H     -3.19032200    5.17534100    6.86783700
| 36> H     -2.47672500    3.74261000    6.07153900
| 37> C      8.18720100   11.20812900    7.86815500
| 38> H      8.97959900   10.64407100    7.37080200
| 39> H      8.47542600   11.35908700    8.90809700
| 40> H      8.13013400   12.18562300    7.38339700
| 41>  *
| 42>
| 43>                          ****END OF INPUT****

CARTESIAN COORDINATES (ANGSTROEM)
---------------------------------
  S      4.668485    9.290921    8.394969
  F      1.410943    6.311195    6.874916
  O      2.654071    8.240111    3.432507
  O     -2.770447    5.397483    4.835331
  C      0.566317    6.500714    5.829507
  C     -0.650531    5.849823    5.915980
  H     -0.859290    5.254371    6.791371
  C     -1.553883    5.978743    4.861717
  C     -1.205883    6.748246    3.741585
  H     -1.914178    6.844654    2.929767
  C      0.022998    7.363134    3.690446
  H      0.297510    7.948963    2.824305
  C      0.957796    7.273870    4.738695
  C      2.261522    7.975311    4.572124
  C      3.017849    8.381069    5.760545
  H      2.588743    8.191587    6.733069
  C      4.209919    8.999247    5.640414
  H      4.596266    9.167969    4.639958
  C      5.048188    9.472034    6.699414
  C      6.252248   10.125329    6.548750
  H      6.671488   10.338029    5.573832
  C      6.876186   10.486779    7.772123
  C      6.124627   10.092750    8.848425
  H      6.353929   10.232628    9.893610
  C     -3.160856    4.584460    5.950549
  H     -4.156331    4.220220    5.713364
  H     -3.190322    5.175341    6.867837
  H     -2.476725    3.742610    6.071539
  C      8.187201   11.208129    7.868155
  H      8.979599   10.644071    7.370802
  H      8.475426   11.359087    8.908097
  H      8.130134   12.185623    7.383397

ORBITAL ENERGIES
----------------

  NO   OCC          E(Eh)            E(eV)
   0   2.0000     -88.960740     -2420.7448
   1   2.0000     -24.781056      -674.3268
   2   2.0000     -19.246373      -523.7204
   3   2.0000     -19.186550      -522.0926
   4   2.0000     -10.354780      -281.7679
   5   2.0000     -10.346621      -281.5459
   6   2.0000     -10.332694      -281.1669
   7   2.0000     -10.295894      -280.1655
   8   2.0000     -10.287703      -279.9426
   9   2.0000     -10.279295      -279.7138
  10   2.0000     -10.277085      -279.6537
  11   2.0000     -10.267047      -279.3805
  12   2.0000     -10.266544      -279.3669
  13   2.0000     -10.262908      -279.2679
  14   2.0000     -10.260276      -279.1963
  15   2.0000     -10.258613      -279.1511
  16   2.0000     -10.253552      -279.0133
  17   2.0000     -10.251710      -278.9632
  18   2.0000     -10.239941      -278.6429
  19   2.0000      -8.038098      -218.7278
  20   2.0000      -6.001781      -163.3168
  21   2.0000      -5.997615      -163.2034
  22   2.0000      -5.995160      -163.1366
  23   2.0000      -1.321831       -35.9689
  24   2.0000      -1.165235       -31.7077
  25   2.0000      -1.122861       -30.5546
  26   2.0000      -0.979314       -26.6485
  27   2.0000      -0.961870       -26.1738
  28   2.0000      -0.898112       -24.4389
  29   2.0000      -0.865388       -23.5484
  30   2.0000      -0.851006       -23.1571
  31   2.0000      -0.847252       -23.0549
  32   2.0000      -0.821703       -22.3597
  33   2.0000      -0.795555       -21.6482
  34   2.0000      -0.761334       -20.7170
  35   2.0000      -0.731553       -19.9066
  36   2.0000      -0.712973       -19.4010
  37   2.0000      -0.691437       -18.8150
  38   2.0000      -0.656536       -17.8652
  39   2.0000      -0.632489       -17.2109
  40   2.0000      -0.625066       -17.0089
  41   2.0000      -0.609752       -16.5922
  42   2.0000      -0.594111       -16.1666
  43   2.0000      -0.586655       -15.9637
  44   2.0000      -0.575188       -15.6517
  45   2.0000      -0.562666       -15.3109
  46   2.0000      -0.547725       -14.9043
  47   2.0000      -0.546945       -14.8831
  48   2.0000      -0.529169       -14.3994
  49   2.0000      -0.519381       -14.1331
  50   2.0000      -0.512476       -13.9452
  51   2.0000      -0.500252       -13.6125
  52   2.0000      -0.497170       -13.5287
  53   2.0000      -0.492259       -13.3951
  54   2.0000      -0.488395       -13.2899
  55   2.0000      -0.478047       -13.0083
  56   2.0000      -0.462924       -12.5968
  57   2.0000      -0.459413       -12.5013
  58   2.0000      -0.455897       -12.4056
  59   2.0000      -0.448810       -12.2127
  60   2.0000      -0.438733       -11.9385
  61   2.0000      -0.435276       -11.8445
  62   2.0000      -0.431952       -11.7540
  63   2.0000      -0.415215       -11.2986
  64   2.0000      -0.404337       -11.0026
  65   2.0000      -0.396880       -10.7997
  66   2.0000      -0.369314       -10.0496
  67   2.0000      -0.336568        -9.1585
  68   2.0000      -0.323817        -8.8115
  69   2.0000      -0.310996        -8.4626
  70   2.0000      -0.296299        -8.0627
  71   2.0000      -0.276080        -7.5125
  72   0.0000      -0.052960        -1.4411
  73   0.0000       0.012140         0.3304
  74   0.0000       0.024596         0.6693
  75   0.0000       0.063805         1.7362
  76   0.0000       0.065741         1.7889

Total SCF time: 0 days 0 hours 3 min 28 sec

-----------------------------------------------------------------------------
         ABSORPTION SPECTRUM VIA TRANSITION ELECTRIC DIPOLE MOMENTS
-----------------------------------------------------------------------------
State   Energy    Wavelength  fosc         T2        TX        TY        TZ
        (cm-1)      (nm)                 (au**2)    (au)      (au)      (au)
-----------------------------------------------------------------------------
   1   29997.2    333.4   1.089717478  11.95938  -2.66806  -1.46771  -1.63910
   2   30897.3    323.7   0.031770774   0.33852   0.36231   0.20231   0.40782
   3   36559.7    273.5   0.328579630   2.95878  -1.33165  -0.77134   0.76846
   4   38096.2    262.5   0.100505100   0.86853   0.79505   0.39809   0.27920
   5   39793.7    251.3   0.013672669   0.11311  -0.31705  -0.10946   0.02476
   6   45578.2    219.4   0.027614993   0.19946   0.23704   0.16662  -0.33987
   7   46458.2    215.2   0.103053501   0.73026   0.37862  -0.22346   0.73278
   8   47801.2    209.2   0.000320504   0.00221   0.04471  -0.00983   0.01059
   9   49707.8    201.2   0.070860760   0.46931  -0.47690  -0.37322   0.32028
  10   50246.2    199.0   0.045617991   0.29889   0.42931   0.15189   0.30251
  11   51243.0    195.1   0.000145635   0.00094  -0.02763  -0.01107   0.00706
  12   51800.8    193.0   0.002265234   0.01440  -0.02325   0.11769  -0.00189
  13   52317.8    191.1   0.025508412   0.16051   0.34763   0.19125  -0.05557
  14   52824.7    189.3   0.005643791   0.03517  -0.16372  -0.09010   0.01581
  15   53189.7    188.0   0.012086324   0.07481  -0.14860   0.07263  -0.21783
  16   55942.4    178.8   0.803067933   4.72592  -1.81116  -1.12032   0.43648
  17   56343.5    177.5   0.242681762   1.41798   1.04828   0.23665   0.51292
  18   57001.4    175.4   0.066990715   0.38690  -0.17081   0.18406  -0.56908
  19   57153.6    175.0   0.218349419   1.25772   0.00594   0.52008  -0.99358
  20   57604.2    173.6   0.070164897   0.40100   0.58160   0.05336   0.24472
  21   58605.9    170.6   0.199257826   1.11931  -0.95634  -0.45046  -0.04264
  22   59170.5    169.0   0.009961664   0.05542  -0.19572  -0.11439   0.06351
  23   60033.5    166.6   0.299831930   1.64422   1.03189   0.58781  -0.48363
  24   60114.7    166.3   0.000791693   0.00434  -0.04672  -0.03981  -0.02383
  25   60530.9    165.2   0.001629063   0.00886  -0.02504   0.03248   0.08472
  26   61145.1    163.5   0.008295317   0.04466  -0.16340  -0.01375   0.13332
  27   61288.8    163.2   0.004130714   0.02219   0.10693  -0.07568  -0.07089
  28   62070.1    161.1   0.168043303   0.89128  -0.73595  -0.48971  -0.33143
  29   62173.3    160.8   0.002618558   0.01387   0.06903   0.09219   0.02453
  30   62676.9    159.5   0.111221781   0.58419   0.51092   0.42900  -0.37297
  31   62981.9    158.8   0.032057266   0.16757   0.21695  -0.29408  -0.18444
  32   63227.8    158.2   0.000508881   0.00265   0.02748   0.01627  -0.04037
  33   63880.9    156.5   0.005027323   0.02591   0.10433   0.08898  -0.08430
  34   63950.5    156.4   0.002622215   0.01350  -0.05434   0.07926   0.06530
  35   64324.8    155.5   0.007051583   0.03609  -0.14942  -0.10415   0.05399
  36   65392.4    152.9   0.001428651   0.00719   0.00974  -0.08370   0.00959
  37   65667.6    152.3   0.006607947   0.03313  -0.04502   0.11116  -0.13691
  38   65893.3    151.8   0.008378983   0.04186  -0.16537   0.02333   0.11820
  39   66098.0    151.3   0.021031791   0.10475  -0.13238  -0.19168   0.22469
  40   66143.6    151.2   0.049598052   0.24686  -0.35102  -0.12542   0.32851
  41   66613.3    150.1   0.004784957   0.02365  -0.03237  -0.12841   0.07817
  42   66742.0    149.8   0.003190379   0.01574  -0.11338   0.01142   0.05246
  43   67316.4    148.6   0.003641781   0.01781  -0.11804  -0.00086   0.06227
  44   67430.2    148.3   0.013635530   0.06657   0.18132  -0.18343   0.00684
  45   67514.1    148.1   0.045295773   0.22087   0.34521   0.11613  -0.29701
  46   67953.0    147.2   0.002802704   0.01358   0.06912   0.09293  -0.01286
  47   68152.4    146.7   0.006929862   0.03347  -0.16619   0.06691   0.03711
  48   68312.8    146.4   0.018316610   0.08827   0.15153   0.24116   0.08458
  49   68448.3    146.1   0.005142282   0.02473   0.13679  -0.06605   0.04072
  50   68717.6    145.5   0.054174346   0.25954  -0.43554  -0.19435   0.17909
  51   69106.9    144.7   0.183022326   0.87188  -0.03944   0.41926  -0.83340
  52   69519.1    143.8   0.015365440   0.07276  -0.07214   0.06776  -0.25093
  53   69780.1    143.3   0.025633196   0.12093   0.32580   0.01697   0.12041
  54   69981.8    142.9   0.004475930   0.02106  -0.02119  -0.09832  -0.10459
  55   70673.6    141.5   0.002211709   0.01030  -0.08993   0.03650  -0.02972
  56   70836.2    141.2   0.046441755   0.21584  -0.28775  -0.12466  -0.34278
  57   70916.2    141.0   0.048325492   0.22434  -0.40654  -0.12088  -0.21084
  58   70968.0    140.9   0.005361421   0.02487  -0.11186   0.00784   0.11089
  59   71476.2    139.9   0.008078973   0.03721  -0.05462  -0.17396  -0.06296
  60   71582.6    139.7   0.001675341   0.00770  -0.06326  -0.06036   0.00776
  61   71655.1    139.6   0.008556427   0.03931   0.03024   0.08258  -0.17770
  62   71916.2    139.1   0.010680266   0.04889  -0.21303   0.05826  -0.01065
  63   72248.0    138.4   0.020922567   0.09534   0.01178   0.21478  -0.22152
  64   72467.3    138.0   0.009110964   0.04139  -0.09727  -0.02278  -0.17723
  65   72687.3    137.6   0.069344481   0.31407   0.24234   0.11949   0.49098
  66   73010.6    137.0   0.005306388   0.02393   0.00429  -0.06868   0.13853
  67   73108.6    136.8   0.016476042   0.07419   0.07709  -0.08528   0.24694
  68   73379.3    136.3   0.001528001   0.00686  -0.07741  -0.01569   0.02482
  69   73510.2    136.0   0.014932162   0.06687   0.12711  -0.22307   0.03090
  70   73609.5    135.9   0.004336996   0.01940   0.01771  -0.01428  -0.13740
  71   73823.8    135.5   0.001668839   0.00744  -0.01158  -0.03570   0.07768
  72   74129.1    134.9   0.013191392   0.05858  -0.00822   0.23741   0.04642
  73   74220.5    134.7   0.012050950   0.05345   0.14603   0.04501   0.17351
  74   74614.8    134.0   0.041030333   0.18103   0.35173   0.21654  -0.10211
  75   74880.7    133.5   0.014061433   0.06182  -0.21680  -0.11983  -0.02139
  76   74944.8    133.4   0.007972823   0.03502   0.17456   0.06437  -0.02022
  77   74961.1    133.4   0.007805979   0.03428   0.09391   0.02633   0.15739
  78   75262.5    132.9   0.026015732   0.11380  -0.17437  -0.21601  -0.19165
  79   75538.7    132.4   0.172115893   0.75011  -0.38036  -0.17744  -0.75760
  80   75708.0    132.1   0.022203478   0.09655   0.15878   0.16082   0.21325
  81   75809.6    131.9   0.000202669   0.00088  -0.02324   0.00038  -0.01844
  82   76001.3    131.6   0.082574657   0.35769  -0.03037  -0.13011   0.58295
  83   76249.4    131.1   0.008854125   0.03823  -0.06587  -0.08965   0.16079
  84   76525.6    130.7   0.015453255   0.06648   0.08213  -0.13015  -0.20687
  85   76863.8    130.1   0.004558644   0.01952   0.12025  -0.01314   0.06994
  86   76990.3    129.9   0.034396378   0.14708  -0.23412  -0.12499  -0.27685
  87   77139.6    129.6   0.002157333   0.00921  -0.04191   0.03667  -0.07814
  88   77352.0    129.3   0.010290182   0.04380   0.03578  -0.08680  -0.18703
  89   77436.2    129.1   0.006269105   0.02665  -0.15117  -0.03154  -0.05296
  90   77647.6    128.8   0.004820380   0.02044   0.03158   0.10573  -0.09089
  91   78020.0    128.2   0.001037793   0.00438  -0.00743   0.03423   0.05614
  92   78435.9    127.5   0.009313546   0.03909  -0.04382   0.18884   0.03887
  93   78736.4    127.0   0.079963330   0.33434   0.26526   0.10013  -0.50393
  94   78788.1    126.9   0.005704996   0.02384   0.02798   0.15184   0.00100
  95   78967.0    126.6   0.054927822   0.22899   0.10940  -0.01547  -0.46560
  96   79116.3    126.4   0.035802436   0.14898   0.12884   0.08339  -0.35415
  97   79401.0    125.9   0.012169415   0.05046  -0.04420   0.17179  -0.13781
  98   79534.8    125.7   0.001975463   0.00818   0.08263   0.03334   0.01539
  99   79628.2    125.6   0.001854922   0.00767  -0.06098   0.06011   0.01838
 100   79732.0    125.4   0.090742202   0.37467   0.28422   0.08978  -0.53463
 101   79771.5    125.4   0.067242426   0.27751   0.00042  -0.11443   0.51421
 102   79906.8    125.1   0.032099679   0.13225  -0.06341   0.17230   0.31391
 103   79950.3    125.1   0.051807981   0.21333  -0.08405  -0.11685   0.43888
 104   80122.8    124.8   0.004137608   0.01700   0.00875   0.12200   0.04517
 105   80209.0    124.7   0.002476851   0.01017  -0.05696   0.07451  -0.03701
 106   80330.6    124.5   0.002215697   0.00908  -0.04743   0.04498   0.06934
 107   80486.8    124.2   0.001207854   0.00494   0.00705   0.06039  -0.03526
 108   80601.9    124.1   0.002602323   0.01063  -0.01298  -0.04085   0.09376
 109   80802.6    123.8   0.009930471   0.04046  -0.02535  -0.03427   0.19658
 110   80899.9    123.6   0.006061126   0.02466  -0.01548   0.15017  -0.04330
 111   81039.2    123.4   0.009070213   0.03685  -0.09881   0.09421  -0.13494
 112   81190.4    123.2   0.022461890   0.09108   0.05899  -0.11877   0.27110
 113   81637.3    122.5   0.000634245   0.00256   0.01522   0.01740   0.04498
 114   81874.3    122.1   0.017283135   0.06949   0.24562   0.01822  -0.09398
 115   82115.6    121.8   0.008133972   0.03261  -0.17950  -0.00769  -0.01816
 116   82184.0    121.7   0.061638492   0.24691  -0.47874  -0.13236   0.01415
 117   82332.6    121.5   0.004384461   0.01753   0.10179   0.03567  -0.07680
 118   82500.2    121.2   0.029649737   0.11832   0.27027   0.19383  -0.08774
 119   82561.1    121.1   0.004109894   0.01639  -0.10688  -0.04683  -0.05266
 120   82786.5    120.8   0.013728831   0.05459  -0.10313  -0.17432   0.11649
 121   82984.5    120.5   0.017445386   0.06921   0.04213   0.25763   0.03257
 122   83041.3    120.4   0.009279100   0.03679   0.13676   0.11928  -0.06209
 123   83159.9    120.3   0.007692590   0.03045  -0.05339   0.12099  -0.11386
 124   83221.2    120.2   0.002037260   0.00806   0.05786   0.05415   0.04218
 125   83352.7    120.0   0.008173352   0.03228   0.15820  -0.03113  -0.07928
 126   83475.6    119.8   0.021109534   0.08325   0.04748   0.22164   0.17853
 127   83645.9    119.6   0.003336859   0.01313   0.05848   0.06874   0.07063
 128   83815.2    119.3   0.005107013   0.02006   0.07139  -0.07845   0.09386
 129   83869.2    119.2   0.008109864   0.03183   0.17637  -0.02695  -0.00013
 130   84074.4    118.9   0.031935550   0.12505   0.03093  -0.22817   0.26839
 131   84125.8    118.9   0.010470792   0.04098  -0.17753  -0.08230  -0.05183
 132   84286.8    118.6   0.022611032   0.08832  -0.02211   0.10716   0.27630
 133   84336.9    118.6   0.001048763   0.00409   0.00061   0.05509   0.03253
 134   84540.4    118.3   0.040618649   0.15817  -0.13642  -0.09170   0.36215
 135   84752.0    118.0   0.002943111   0.01143   0.09002  -0.05426  -0.01959
 136   84773.6    118.0   0.003767239   0.01463   0.03488  -0.11440   0.01804
 137   84973.5    117.7   0.013611602   0.05274  -0.13207  -0.02970  -0.18550
 138   85034.5    117.6   0.001196712   0.00463  -0.04163  -0.04605  -0.02792
 139   85093.0    117.5   0.003904220   0.01510   0.04312  -0.05985  -0.09830
 140   85216.1    117.3   0.008803416   0.03401  -0.07547   0.01091   0.16791
 141   85392.5    117.1   0.003801422   0.01466  -0.09330  -0.03747  -0.06743
 142   85590.2    116.8   0.001515315   0.00583  -0.00729  -0.01452   0.07459
 143   85661.0    116.7   0.002168847   0.00834   0.06958  -0.05595  -0.01905
 144   85763.8    116.6   0.045745363   0.17560  -0.15483  -0.03075   0.38818
 145   85851.4    116.5   0.135036591   0.51782   0.51562   0.45304  -0.21613
 146   85981.3    116.3   0.008807497   0.03372   0.15918   0.05947   0.06962
 147   86003.0    116.3   0.025862977   0.09900  -0.02335  -0.13942   0.28110
 148   86120.5    116.1   0.043010418   0.16442  -0.39248  -0.05640  -0.08483
 149   86228.1    116.0   0.012657660   0.04833  -0.18986   0.04404  -0.10169
 150   86315.8    115.9   0.009960494   0.03799  -0.02478  -0.01818  -0.19247

FINAL SINGLE POINT ENERGY     -1227.673201813644

DIPOLE MOMENT
-------------
                                X             Y             Z
Electronic contribution:     -3.68265      -3.53214       0.05761
Nuclear contribution   :      3.37892       3.31606       1.77557
                        -----------------------------------------
Total Dipole Moment    :     -0.30373      -0.21608       1.83318
                        -----------------------------------------
Magnitude (a.u.)       :      1.87069
Magnitude (Debye)      :      4.75492

Rotational constants in cm-1:     0.035604     0.003976     0.003622
Rotational constants in MHz :  1067.394451   119.186470   108.598124

                             ****ORCA TERMINATED NORMALLY****
TOTAL RUN TIME: 0 days 0 hours 23 minutes 50 seconds 573 msec
