                         Program Version 5.0.4 -  RELEASE  -
|  1> ! PBE0 def2-TZVP(-f) def2/J RIJCOSX tightSCF noautostart miniprint nopop
|  2> %maxcore  1800
|  3> %pal nprocs   8 end
|  4> ! CPCM(DMF)
|  5> %tddft
|  6> nroots 20
|  7>
|  8> end
|  9> * xyz   0   1
| 10> S      4.66848500    9.29092100    8.39496900
| 11> F      1.41094300    6.31119500    6.87491600
| 12> O      2.65407100    8.24011100    3.43250700
| 13> O     -2.77044700    5.39748300    4.83533100
| 14> C      0.56631700    6.50071400    5.82950700
| 15> C     -0.65053100    5.84982300    5.91598000
| 16> H     -0.85929000    5.25437100    6.79137100
| 17> C     -1.55388300    5.97874300    4.86171700
| 18> C     -1.20588300    6.74824600    3.74158500
| 19> H     -1.91417800    6.84465400    2.92976700
| 20> C      0.02299800    7.36313400    3.69044600
| 21> H      0.29751000    7.94896300    2.82430500
| 22> C      0.95779600    7.27387000    4.73869500
| 23> C      2.26152200    7.97531100    4.57212400
| 24> C      3.01784900    8.38106900    5.76054500
| 25> H      2.58874300    8.19158700    6.73306900
| 26> C      4.20991900    8.99924700    5.64041400
| 27> H      4.59626600    9.16796900    4.63995800
| 28> C      5.04818800    9.47203400    6.69941400
| 29> C      6.25224800   10.12532900    6.54875000
| 30> H      6.67148800   10.33802900    5.57383200
| 31> C      6.87618600   10.48677900    7.77212300
| 32> C      6.12462700   10.09275000    8.84842500
| 33> H      6.35392900   10.23262800    9.89361000
| 34> C     -3.16085600    4.58446000    5.95054900
| 35> H     -4.15633100    4.22022000    5.71336400
| 36> H     -3.19032200    5.17534100    6.86783700
| 37> H     -2.47672500    3.74261000    6.07153900
| 38> C      8.18720100   11.20812900    7.86815500
| 39> H      8.97959900   10.64407100    7.37080200
| 40> H      8.47542600   11.35908700    8.90809700
| 41> H      8.13013400   12.18562300    7.38339700
| 42>  *
| 43>
| 44>                          ****END OF INPUT****

CARTESIAN COORDINATES (ANGSTROEM)
---------------------------------
  S      4.668485    9.290921    8.394969
  F      1.410943    6.311195    6.874916
  O      2.654071    8.240111    3.432507
  O     -2.770447    5.397483    4.835331
  C      0.566317    6.500714    5.829507
  C     -0.650531    5.849823    5.915980
  H     -0.859290    5.254371    6.791371
  C     -1.553883    5.978743    4.861717
  C     -1.205883    6.748246    3.741585
  H     -1.914178    6.844654    2.929767
  C      0.022998    7.363134    3.690446
  H      0.297510    7.948963    2.824305
  C      0.957796    7.273870    4.738695
  C      2.261522    7.975311    4.572124
  C      3.017849    8.381069    5.760545
  H      2.588743    8.191587    6.733069
  C      4.209919    8.999247    5.640414
  H      4.596266    9.167969    4.639958
  C      5.048188    9.472034    6.699414
  C      6.252248   10.125329    6.548750
  H      6.671488   10.338029    5.573832
  C      6.876186   10.486779    7.772123
  C      6.124627   10.092750    8.848425
  H      6.353929   10.232628    9.893610
  C     -3.160856    4.584460    5.950549
  H     -4.156331    4.220220    5.713364
  H     -3.190322    5.175341    6.867837
  H     -2.476725    3.742610    6.071539
  C      8.187201   11.208129    7.868155
  H      8.979599   10.644071    7.370802
  H      8.475426   11.359087    8.908097
  H      8.130134   12.185623    7.383397

ORBITAL ENERGIES
----------------

  NO   OCC          E(Eh)            E(eV)
   0   2.0000     -89.057800     -2423.3859
   1   2.0000     -24.796028      -674.7342
   2   2.0000     -19.257200      -524.0151
   3   2.0000     -19.191089      -522.2161
   4   2.0000     -10.330704      -281.1127
   5   2.0000     -10.318830      -280.7896
   6   2.0000     -10.309340      -280.5314
   7   2.0000     -10.271732      -279.5080
   8   2.0000     -10.269884      -279.4577
   9   2.0000     -10.258896      -279.1588
  10   2.0000     -10.256292      -279.0879
  11   2.0000     -10.245860      -278.8040
  12   2.0000     -10.244667      -278.7716
  13   2.0000     -10.244555      -278.7685
  14   2.0000     -10.238726      -278.6099
  15   2.0000     -10.238399      -278.6010
  16   2.0000     -10.232554      -278.4419
  17   2.0000     -10.230456      -278.3849
  18   2.0000     -10.218273      -278.0533
  19   2.0000      -8.035926      -218.6687
  20   2.0000      -5.972088      -162.5088
  21   2.0000      -5.968213      -162.4033
  22   2.0000      -5.965954      -162.3419
  23   2.0000      -1.271679       -34.6041
  24   2.0000      -1.113274       -30.2937
  25   2.0000      -1.067389       -29.0451
  26   2.0000      -0.921701       -25.0808
  27   2.0000      -0.903294       -24.5799
  28   2.0000      -0.839471       -22.8432
  29   2.0000      -0.807020       -21.9601
  30   2.0000      -0.792578       -21.5671
  31   2.0000      -0.788644       -21.4601
  32   2.0000      -0.763791       -20.7838
  33   2.0000      -0.737524       -20.0691
  34   2.0000      -0.703592       -19.1457
  35   2.0000      -0.674304       -18.3487
  36   2.0000      -0.655646       -17.8410
  37   2.0000      -0.634418       -17.2634
  38   2.0000      -0.599557       -16.3148
  39   2.0000      -0.576709       -15.6930
  40   2.0000      -0.569426       -15.4949
  41   2.0000      -0.552738       -15.0408
  42   2.0000      -0.537496       -14.6260
  43   2.0000      -0.531313       -14.4578
  44   2.0000      -0.519378       -14.1330
  45   2.0000      -0.503867       -13.7109
  46   2.0000      -0.493106       -13.4181
  47   2.0000      -0.489532       -13.3209
  48   2.0000      -0.472756       -12.8643
  49   2.0000      -0.463099       -12.6016
  50   2.0000      -0.457370       -12.4457
  51   2.0000      -0.446395       -12.1470
  52   2.0000      -0.441473       -12.0131
  53   2.0000      -0.437784       -11.9127
  54   2.0000      -0.431907       -11.7528
  55   2.0000      -0.422701       -11.5023
  56   2.0000      -0.408493       -11.1157
  57   2.0000      -0.405693       -11.0395
  58   2.0000      -0.401156       -10.9160
  59   2.0000      -0.394833       -10.7439
  60   2.0000      -0.386515       -10.5176
  61   2.0000      -0.382355       -10.4044
  62   2.0000      -0.379096       -10.3157
  63   2.0000      -0.362435        -9.8624
  64   2.0000      -0.355204        -9.6656
  65   2.0000      -0.344213        -9.3665
  66   2.0000      -0.320113        -8.7107
  67   2.0000      -0.282985        -7.7004
  68   2.0000      -0.276492        -7.5237
  69   2.0000      -0.267744        -7.2857
  70   2.0000      -0.253093        -6.8870
  71   2.0000      -0.235805        -6.4166
  72   0.0000      -0.089606        -2.4383
  73   0.0000      -0.027899        -0.7592
  74   0.0000      -0.015679        -0.4266
  75   0.0000       0.020083         0.5465
  76   0.0000       0.023091         0.6283

Total SCF time: 0 days 0 hours 2 min 18 sec

-----------------------------------------------------------------------------
         ABSORPTION SPECTRUM VIA TRANSITION ELECTRIC DIPOLE MOMENTS
-----------------------------------------------------------------------------
State   Energy    Wavelength  fosc         T2        TX        TY        TZ
        (cm-1)      (nm)                 (au**2)    (au)      (au)      (au)
-----------------------------------------------------------------------------
   1   27834.0    359.3   1.003199260  11.86553   2.72698   1.50642   1.46962
   2   28730.4    348.1   0.097559725   1.11791  -0.74218  -0.41519  -0.62824
   3   31987.3    312.6   0.135978901   1.39949   0.69670   0.41733  -0.86020
   4   34185.2    292.5   0.182575990   1.75825   1.09144   0.56663   0.49593
   5   35287.7    283.4   0.006530932   0.06093   0.22912   0.00917   0.09136
   6   41224.1    242.6   0.056612540   0.45210   0.15958   0.08248   0.64795
   7   42617.5    234.6   0.027740979   0.21429   0.26029  -0.06639   0.37701
   8   43963.8    227.5   0.012909834   0.09667  -0.28458  -0.05745  -0.11128
   9   44923.8    222.6   0.204132148   1.49593  -0.97582  -0.61083   0.41303
  10   45758.2    218.5   0.018150692   0.13059   0.29309   0.13316   0.16417
  11   45928.2    217.7   0.000227720   0.00163   0.02986  -0.01297   0.02393
  12   46457.9    215.2   0.035521134   0.25171  -0.25020  -0.28666   0.32702
  13   47513.2    210.5   0.070988034   0.49187   0.60954   0.33445  -0.09206
  14   48646.9    205.6   0.001562631   0.01057  -0.03608   0.09513   0.01494
  15   49145.5    203.5   0.026567276   0.17797  -0.30121  -0.24156   0.16996
  16   50136.8    199.5   0.041851807   0.27481   0.47403   0.22105   0.03530
  17   50518.0    197.9   0.000145040   0.00095   0.02809  -0.01221   0.00268
  18   51323.4    194.8   0.001905912   0.01223  -0.09812  -0.04572  -0.02251
  19   51730.8    193.3   0.174658906   1.11152  -0.86728  -0.58554   0.12844
  20   51920.6    192.6   0.286213844   1.81479  -0.85379   0.10576  -1.03665

FINAL SINGLE POINT ENERGY     -1226.990913775056

DIPOLE MOMENT
-------------
                                X             Y             Z
Electronic contribution:     -3.64029      -3.51341       0.12223
Nuclear contribution   :      3.37892       3.31606       1.77557
                        -----------------------------------------
Total Dipole Moment    :     -0.26138      -0.19734       1.89779
                        -----------------------------------------
Magnitude (a.u.)       :      1.92585
Magnitude (Debye)      :      4.89511

Rotational constants in cm-1:     0.035604     0.003976     0.003622
Rotational constants in MHz :  1067.394451   119.186470   108.598124

                             ****ORCA TERMINATED NORMALLY****
TOTAL RUN TIME: 0 days 0 hours 4 minutes 40 seconds 789 msec
